# vtk DataFile Version 3.1
*description-name of input file* step:2801 
ASCII
DATASET UNSTRUCTURED_GRID
POINTS 1605 FLOAT
-7.133656e-09 -5.606219e-09 -1.337285e-10
-7.881151e-09 -4.693981e-09 -4.796936e-10
-6.238604e-09 -4.888849e-09 -7.441530e-10
-7.574388e-09 -4.191663e-09 2.240213e-09
-5.522334e-09 -6.028951e-09 -4.982192e-11
1.217764e-08 6.929576e-09 -1.066597e-08
1.376923e-08 6.963921e-09 -1.117841e-08
1.284937e-08 5.547559e-09 -1.212823e-08
-6.502037e-09 -6.260320e-09 8.848385e-10
-6.245354e-09 -2.851251e-09 7.985530e-10
-4.544902e-09 -4.567333e-09 -1.102052e-09
-6.091754e-09 -2.996358e-09 -2.745781e-10
-5.557824e-09 -5.218835e-09 2.227796e-09
-5.881252e-09 -3.580910e-09 1.685867e-09
-5.399013e-09 -3.467432e-09 -1.536637e-09
-7.471119e-09 -4.240621e-09 3.211334e-09
-3.588868e-09 -5.660395e-09 1.877018e-10
-6.518493e-09 -1.023979e-09 -1.420797e-11
-5.458314e-09 -1.509047e-09 -7.051776e-10
-3.711691e-09 -3.968229e-09 -3.205566e-09
-5.201107e-09 -2.443115e-09 -3.105011e-09
-3.815605e-09 -1.896223e-09 -4.064126e-09
-6.487612e-09 -2.552208e-09 2.330729e-09
-5.547880e-09 -1.439374e-10 -2.384242e-09
-6.136356e-09 6.854108e-10 -9.257287e-10
-3.404850e-09 -4.802070e-09 1.949834e-09
-7.367724e-09 -1.046342e-09 1.269827e-09
-5.839656e-09 -3.328219e-09 3.897064e-09
-4.175670e-09 -2.166479e-09 -3.891276e-10
-8.017941e-09 -1.997494e-09 2.899001e-09
-2.458597e-09 -4.380542e-09 -2.290660e-09
-2.933890e-09 -3.272967e-09 -4.097659e-09
-2.129978e-09 -4.217132e-09 -3.445545e-09
-3.680503e-09 -3.626264e-09 -5.872495e-10
-6.029660e-09 -2.254227e-09 4.088148e-09
-4.153190e-09 -6.637370e-10 -2.223290e-09
-5.869995e-09 -6.172863e-10 2.193086e-09
-4.782740e-09 -3.022160e-10 6.950421e-10
-2.794159e-09 -2.177123e-09 -1.984683e-09
-4.061683e-09 -3.991318e-09 3.756887e-09
-4.682784e-09 1.368614e-10 -5.536205e-10
-3.973624e-09 8.229793e-10 -5.042194e-09
-4.048724e-09 6.584997e-10 -3.012226e-09
-4.939348e-09 9.913942e-10 -3.582435e-09
-4.177331e-09 -2.421485e-09 2.209999e-09
-1.506135e-09 -3.066881e-09 -6.478471e-10
-4.919361e-09 2.526391e-09 -4.496171e-09
-2.867087e-09 -1.419195e-09 -3.230018e-09
-3.033105e-09 2.838158e-10 -2.572084e-09
-1.557428e-09 -1.864634e-09 -3.231601e-09
-3.318217e-09 4.745121e-10 -7.637462e-10
-3.274522e-09 -2.111810e-09 2.930756e-10
-3.425277e-09 4.996069e-11 -4.947804e-09
-1.778624e-09 -2.339783e-09 -1.683763e-09
-3.740688e-09 -6.049030e-10 8.342619e-09
-2.011239e-09 -1.980414e-09 7.308282e-09
-1.787265e-09 4.400755e-10 7.330641e-09
-1.423427e-09 8.514256e-10 -3.981189e-09
-5.941154e-09 -3.105770e-09 6.252700e-09
-4.459567e-09 2.546044e-09 -2.633248e-09
-3.805283e-09 -2.835454e-09 3.951752e-09
-4.461456e-09 -4.185058e-10 2.646841e-09
-3.866598e-09 -1.346464e-09 1.451826e-09
-5.552942e-09 2.205478e-09 -4.454792e-10
-5.144731e-09 8.691741e-10 1.133026e-09
-6.564577e-09 1.787420e-09 2.000500e-09
-4.946649e-09 -4.358800e-09 5.871527e-09
-4.732617e-09 -3.823505e-09 7.261705e-09
-6.313941e-09 -1.672325e-09 6.632906e-09
-1.854466e-09 1.763234e-09 2.139553e-09
-3.218609e-10 2.034214e-09 4.003323e-09
-1.094724e-09 2.157078e-09 6.432750e-10
-4.717523e-09 4.841816e-10 -8.924755e-10
-3.065224e-09 -4.288822e-09 5.478090e-09
9.793824e-10 3.901842e-10 3.655342e-09
9.035009e-10 1.138687e-09 4.184518e-09
-1.735641e-10 8.439077e-10 5.573102e-09
-5.758681e-09 3.117648e-09 1.404643e-09
-4.880346e-09 -1.571400e-09 5.479611e-09
-1.103087e-09 -3.664562e-11 -1.483005e-09
-4.687714e-09 -2.119402e-09 4.609354e-09
-3.438243e-09 2.448461e-10 7.359741e-10
-2.136034e-09 -5.706231e-10 -1.271695e-11
-5.842248e-09 2.254919e-09 4.031258e-09
-2.570617e-09 -5.169937e-09 3.624286e-09
-2.997539e-09 2.600041e-09 -4.093680e-09
-2.271249e-09 -3.624499e-09 2.651288e-09
-5.822188e-09 -6.698023e-10 5.290386e-09
-2.799073e-09 2.039711e-09 -2.277233e-09
-4.268752e-09 -1.399720e-10 4.776323e-09
-2.906324e-09 -2.869818e-09 5.211703e-09
-5.665733e-09 -5.807784e-10 3.956820e-09
-3.194167e-09 -1.104255e-09 4.266824e-09
-4.295106e-10 -1.294916e-09 1.590250e-10
-4.491188e-09 3.292170e-09 2.624942e-09
-3.541289e-09 2.739665e-09 -8.229703e-10
-2.341867e-10 -1.484755e-09 -3.244105e-09
1.404259e-10 -2.643544e-09 -2.543091e-09
-3.908917e-09 -2.309726e-09 8.073548e-09
-5.256649e-09 -1.436404e-09 7.663052e-09
-5.361983e-09 2.943610e-10 7.604350e-09
6.456837e-10 2.222629e-09 3.151609e-09
-3.844174e-09 1.496203e-09 8.527198e-10
-4.058460e-09 2.963258e-09 3.708028e-10
-6.534002e-09 1.011762e-09 4.675169e-09
-4.291245e-09 1.479239e-10 3.411883e-09
-3.726545e-09 -2.703339e-09 6.411706e-09
1.306420e-11 -8.587426e-11 -3.097857e-09
-1.338236e-09 -2.741247e-09 3.723689e-09
-4.940151e-09 1.232678e-09 6.677713e-09
-3.607620e-09 6.193810e-10 3.330380e-09
-4.201553e-09 2.107837e-09 5.548537e-09
-4.286312e-09 1.958946e-09 3.065709e-09
-2.754196e-10 -4.081293e-09 2.769769e-09
8.528467e-10 -3.555455e-09 4.491383e-09
-4.028079e-09 2.404947e-09 2.046121e-09
5.735644e-10 -1.682176e-09 -4.216931e-10
-4.307726e-09 2.767181e-09 4.248291e-09
1.467504e-09 -1.165297e-09 -3.627036e-09
-7.918108e-10 -3.998213e-09 6.326723e-09
-6.290580e-10 -4.727051e-10 1.267608e-09
-2.220093e-09 -3.171627e-09 6.422872e-09
-1.956031e-09 -2.194645e-09 5.542375e-09
-1.420919e-09 -2.965679e-10 2.667595e-09
-1.297845e-09 -1.721887e-09 4.432746e-09
-2.712086e-09 1.238536e-09 3.663798e-09
1.979548e-09 -1.120730e-09 -1.434886e-09
7.469049e-10 7.490254e-10 -1.396727e-09
1.278502e-09 -4.883117e-10 5.917648e-09
-3.126718e-09 1.146640e-09 5.892885e-09
7.941618e-10 5.230457e-10 -3.352053e-09
1.082361e-09 -4.624691e-09 3.134272e-09
-8.642783e-10 -7.367065e-10 3.995499e-09
1.093035e-09 -9.852611e-10 -8.282978e-11
7.227669e-10 -3.531776e-09 5.506602e-09
-2.923984e-09 8.284482e-10 7.231524e-09
-2.649428e-09 2.405609e-09 5.493990e-09
-1.139033e-09 -1.920807e-09 6.681372e-09
1.911543e-09 -4.498221e-09 3.694943e-09
1.997403e-09 -3.599828e-09 2.612523e-09
-3.544303e-10 -1.503394e-09 2.915559e-09
-3.408511e-10 -2.692324e-09 7.142899e-09
1.316641e-09 -1.764134e-09 1.850273e-09
1.943866e-09 -3.946230e-10 -2.389114e-09
-1.158453e-09 1.464646e-09 3.563226e-09
-7.754394e-10 -1.334072e-09 8.039372e-09
1.705470e-09 4.850543e-10 -1.995579e-11
2.514280e-09 -3.561827e-09 4.886367e-09
3.252902e-09 -3.940009e-09 3.645188e-09
1.920654e-09 1.025203e-09 -1.325535e-09
4.479795e-10 -2.172236e-09 6.438565e-09
-1.723105e-09 9.551577e-10 5.145518e-09
2.994344e-09 -5.594322e-10 1.075174e-09
2.696779e-09 2.843415e-10 -4.124172e-09
1.962940e-09 -2.723069e-09 5.169160e-09
3.863510e-09 -2.441336e-09 2.487911e-09
3.507355e-09 3.314530e-10 -2.158182e-09
2.937084e-09 2.368118e-09 -2.704113e-09
2.907275e-09 2.299662e-09 -4.378717e-09
3.571711e-09 1.014595e-09 -3.878121e-09
4.495675e-09 1.807300e-09 -5.518124e-09
1.337508e-09 -1.397989e-09 4.426509e-09
6.590549e-10 -7.099675e-10 7.435606e-09
2.707489e-09 -8.088739e-10 2.062681e-09
1.438746e-09 1.286413e-09 4.941916e-10
2.070115e-09 1.483906e-09 -3.346725e-10
4.602966e-09 1.546933e-09 -3.672308e-09
3.377509e-10 1.545496e-09 7.245854e-09
1.332528e-09 1.109206e-09 2.179787e-09
3.000581e-09 -2.266313e-09 3.609817e-09
2.107081e-09 1.823440e-11 3.386521e-09
3.466204e-09 -7.838192e-10 2.119821e-09
4.282016e-09 2.698949e-09 -3.669086e-09
3.028806e-09 6.552488e-10 -7.303884e-10
3.309524e-09 1.355890e-09 -1.996969e-09
4.912407e-09 2.728407e-09 -5.122591e-09
3.377747e-09 1.281320e-09 1.026511e-09
5.294602e-09 1.877864e-09 -5.885295e-09
5.186436e-09 1.617309e-09 -4.754051e-09
3.721088e-09 -1.714343e-11 2.220298e-10
3.124209e-09 1.185443e-09 2.731749e-09
6.590027e-09 1.404573e-09 -5.722798e-09
5.930202e-09 2.736176e-09 -4.096366e-09
7.559378e-09 2.989363e-09 -6.666979e-09
6.949429e-09 1.917210e-09 -4.800721e-09
7.257036e-09 2.245652e-09 -6.362061e-09
6.152011e-09 3.288047e-09 -5.229176e-09
7.188390e-09 3.175109e-09 -5.492408e-09
8.576085e-09 2.812456e-09 -5.654501e-09
8.593611e-09 3.022355e-09 -7.083582e-09
8.738841e-09 4.210909e-09 -6.550288e-09
9.939740e-09 3.093257e-09 -6.739144e-09
1.025641e-08 4.484323e-09 -7.833683e-09
1.026939e-08 5.064761e-09 -7.794366e-09
9.392793e-09 3.955525e-09 -5.698419e-09
1.121764e-08 4.603243e-09 -6.827986e-09
1.015555e-08 4.906762e-09 -6.200781e-09
1.088163e-08 4.992570e-09 -8.648380e-09
1.131140e-08 6.599484e-09 -7.624700e-09
1.143180e-08 5.339011e-09 -6.416365e-09
1.275513e-08 5.054789e-09 -8.228869e-09
1.125517e-08 6.653943e-09 -9.952804e-09
1.158076e-08 5.918986e-09 -1.035583e-08
1.116771e-08 6.056919e-09 -9.028633e-09
1.198856e-08 5.023978e-09 -8.869163e-09
1.161282e-08 5.838680e-09 -6.979084e-09
1.298955e-08 5.645993e-09 -8.094994e-09
1.329500e-08 4.846144e-09 -8.832534e-09
1.394097e-08 4.765264e-09 -1.060840e-08
1.182531e-08 6.752399e-09 -8.739907e-09
1.430796e-08 6.596442e-09 -1.039859e-08
1.407879e-08 6.399481e-09 -8.939346e-09
1.369338e-08 7.620295e-09 -9.172144e-09
1.995384e-09 1.254555e-09 -8.301039e-10
-4.320767e-09 -3.066615e-09 7.667626e-09
7.408207e-09 2.617507e-09 -6.514520e-09
7.373884e-09 3.082236e-09 -6.079693e-09
1.251350e-08 6.238567e-09 -1.139710e-08
2.408246e-09 1.283867e-09 7.603514e-10
-4.000501e-09 3.056867e-10 -6.586834e-10
7.882237e-09 2.993783e-09 -5.573455e-09
4.984029e-10 4.177640e-10 7.340730e-09
-1.780910e-10 3.561899e-10 -1.439866e-09
-2.913632e-09 -9.466535e-10 -2.278384e-09
8.076495e-09 3.005859e-09 -6.875280e-09
-4.699458e-09 1.768719e-09 -3.107842e-09
-5.854654e-09 1.328297e-09 1.566763e-09
-1.274761e-10 1.301666e-09 3.873872e-09
1.308005e-09 -9.431503e-10 5.172078e-09
1.026290e-08 4.774542e-09 -7.814025e-09
-4.555352e-09 -3.717831e-09 -2.371101e-09
-4.043270e-09 2.684102e-09 1.208462e-09
-3.355803e-09 -2.852636e-09 4.581727e-09
-6.161629e-09 2.452534e-09 1.702572e-09
1.132472e-08 4.971127e-09 -6.622175e-09
8.209340e-11 1.194702e-09 6.409478e-09
3.799846e-10 3.315756e-10 -2.247292e-09
2.908200e-10 1.586450e-09 4.093920e-09
-4.784030e-09 -1.845401e-09 5.044483e-09
-1.647133e-09 -2.467946e-09 4.633032e-09
-4.274824e-09 3.127714e-09 1.497873e-09
-2.245659e-09 -2.568800e-09 -3.664630e-09
1.330930e-08 6.255740e-09 -1.165332e-08
[...]
POINT_DATA 1605
VECTORS vector_force float
-3.839077e+02 -8.562075e+02 7.623260e+02 
-1.990257e+01 3.404936e+02 -2.947313e+01 
3.692772e+02 -1.084323e+03 3.073153e+02 
7.491946e+02 3.141532e+02 2.508239e+02 
-3.920538e+01 -5.234904e+02 4.895122e+02 
2.295265e+02 8.388445e+00 -7.495634e+02 
-3.423304e+01 2.185118e+02 -1.040531e+03 
2.764975e+02 -2.212710e+02 3.323905e+02 
-9.807703e+01 6.643538e+00 3.399403e+02 
4.045578e+02 -6.134147e+02 -1.394671e+02 
2.088277e+02 6.861337e+01 -9.731458e+00 
1.490746e+00 -3.428614e+02 3.178171e+02 
8.674592e+01 -5.249822e+01 3.537391e+02 
6.434017e+02 -6.348075e+02 1.882429e+02 
3.785979e+02 1.727312e+02 7.242612e+02 
1.220333e+02 7.511448e+02 1.802759e+01 
6.908243e+01 -5.378206e+02 -3.865025e+02 
-2.146488e+02 -3.778145e+02 7.471917e+02 
2.714311e+02 -1.306375e+02 7.941649e+01 
2.180875e+02 -6.981346e+02 5.338715e+02 
1.973678e+02 8.872824e+00 7.902080e+02 
-5.275358e+02 2.069434e+02 1.183230e+02 
-2.251504e+02 -2.631112e+02 1.707357e+02 
-1.514781e+03 1.672782e+01 -1.372615e+02 
-8.633426e+02 -5.762436e+02 8.345968e+02 
-4.761068e+02 -6.043625e+02 -5.305590e+02 
2.057190e+02 -1.454910e+02 1.264964e+03 
3.410297e+01 -2.265750e+02 1.539346e+02 
3.642255e+02 -9.512848e+00 1.288649e+02 
-7.332910e+02 9.785487e+02 -4.419485e+02 
-4.190773e+02 -3.756199e+02 5.571028e+02 
-1.023628e+03 4.287751e+02 1.024620e+03 
1.966064e+02 -1.430714e+02 -4.275810e+02 
-3.133916e+02 -6.291767e+01 -7.566895e+01 
2.744354e+02 -8.872817e+01 5.089779e+01 
3.175296e+02 -1.371103e+02 -2.025207e+02 
2.517231e+02 -7.715158e+02 2.665675e+02 
-1.197510e+02 -3.144439e+02 7.260911e+00 
5.971158e+02 -1.625869e+02 1.120191e+02 
-4.600950e+02 -4.643469e+02 4.749294e+02 
-3.646045e+02 -4.337006e+02 3.735090e+02 
-4.441552e+02 -7.192745e+02 1.027625e+03 
-5.422061e+01 -5.072988e+02 9.287268e+02 
-9.645346e+02 -1.096645e+03 4.509021e+02 
5.408245e+02 -4.246256e+02 4.629672e+01 
8.028026e+02 -2.225440e+02 -1.179300e+02 
-5.387308e+01 -8.962098e+02 -2.751112e+02 
-6.699242e+01 8.392922e+02 5.076511e+02 
2.969908e+02 -1.445135e+02 1.941426e+02 
-1.135036e+02 2.637857e+02 2.441693e+02 
-4.296236e+02 -2.320286e+02 7.730389e+02 
-3.284567e+01 -2.512441e+02 -1.521099e+02 
-1.021149e+03 -1.089941e+03 1.060415e+03 
1.586852e+02 -9.404787e+01 3.966470e+02 
-6.574539e+01 -1.472541e+02 7.588428e+02 
1.009211e+02 3.288861e+02 -2.023785e+02 
-8.391459e+02 -5.849903e+02 -4.683721e+02 
-8.083668e+02 1.511667e+02 -3.672759e+02 
-5.299445e+02 9.874223e+01 4.101791e+02 
-9.330979e+00 4.023899e+02 -4.828060e+02 
3.601815e+02 -3.095141e+02 4.865541e+02 
-2.893138e+02 -7.630842e+02 -8.114197e+01 
2.583021e+02 3.294528e+02 3.248549e+02 
-3.529656e+02 -1.993450e+02 -2.439809e+02 
4.631035e+02 -2.810977e+02 3.684717e+02 
-2.501408e+02 -4.531700e+02 -1.435321e+02 
3.104863e+00 -1.511083e+02 6.455952e+02 
-4.303546e+02 5.131664e+02 9.753220e+02 
-2.299599e+02 1.234880e+01 -2.877091e+02 
8.775712e+02 -4.392549e+02 -6.737631e+02 
-6.298678e+02 4.288901e+02 8.180397e+02 
-1.573268e+02 -2.384399e+02 -1.268988e+03 
3.896538e+02 1.214733e+03 -4.613034e+02 
1.691257e+02 -5.170596e+01 7.902173e+02 
-6.379308e+02 -6.039022e+02 -3.549377e+02 
-3.867652e+02 -1.034465e+02 2.816267e+02 
-5.307539e+02 -2.056961e+02 7.675521e+02 
-9.216932e+01 -1.011495e+03 -1.372978e+02 
1.038386e+01 7.425005e+02 -9.823641e+01 
3.302916e+02 3.155478e+02 -1.372638e+02 
7.861711e+01 -3.775212e+02 -8.505186e+01 
-2.413614e+02 -4.044387e+01 -1.096973e+02 
2.624722e+01 1.573546e+02 9.922444e+01 
-2.644984e+02 3.197359e+02 4.187759e+02 
9.960669e+02 -5.475357e+02 1.102979e+03 
5.273878e+02 -1.071571e+03 -1.397238e+03 
-2.060796e+02 -1.331549e+03 2.120175e+02 
4.215504e+02 4.453567e+02 2.684244e+02 
4.254301e+01 -8.255846e+01 -2.434720e+02 
7.286760e+02 5.904673e+01 2.200504e+02 
3.719500e+02 3.892724e+02 5.581601e+02 
3.264114e+02 4.206838e+02 1.384379e+03 
-4.485247e+01 -9.599432e+01 -6.015118e+02 
-5.937237e+01 5.639486e+02 1.835462e+02 
-8.552863e+02 -1.781955e+02 -7.181494e+02 
5.509964e+01 5.459642e+02 1.936110e+01 
6.554341e+02 2.438314e+01 -2.130804e+02 
1.091618e+03 2.610729e+02 4.241331e+02 
7.016230e+02 9.861510e+02 8.236512e+02 
-6.757695e+02 -1.089268e+02 -1.106217e+03 
2.215220e+02 -3.666952e+02 -4.213998e+02 
-8.867167e+02 1.311370e+03 3.920608e+02 
-9.804483e+01 -9.270396e+02 4.447752e+02 
2.974379e+02 -9.110441e+02 7.650523e+02 
5.339933e+02 3.496902e+02 5.088745e+02 
-3.027474e+02 3.649684e+02 -4.636926e+02 
-6.318432e+01 2.944627e+02 1.699970e+02 
9.480821e+02 -9.648943e+01 -3.142609e+02 
-2.519914e+02 -7.708662e+01 -1.001844e+01 
-1.447901e+02 -4.034215e+02 -1.062603e+03 
9.614301e+01 1.419424e+01 -6.100949e+02 
-1.757726e+02 -3.088454e+02 -1.226715e+03 
-5.379332e+02 -6.730274e+02 -2.239224e+02 
2.854794e+02 -8.221102e+02 8.581900e+02 
8.756731e+00 3.290523e+01 6.672673e+02 
-1.000785e+02 -1.044139e+03 9.013661e+02 
1.199603e+02 6.080251e+02 4.924977e+02 
4.521734e+01 1.202169e+02 -8.713704e+02 
7.361955e+02 9.619011e+02 -5.381396e+02 
4.117507e+02 9.921661e+02 3.190328e+02 
-5.869199e+01 1.100371e+02 1.636822e+02 
-5.248032e+02 8.001419e+02 3.526643e+02 
-1.755781e+02 4.931673e+02 5.206503e+01 
-4.110526e+02 7.495532e+01 1.690663e+02 
-5.170098e+02 4.810751e+02 1.409524e+02 
-3.794670e+02 3.417457e+02 7.692496e+02 
2.345470e+02 -1.888045e+02 -7.105086e+02 
6.199315e+01 -6.755660e+01 -1.367457e+01 
-3.210529e+02 -9.077149e+01 -6.624089e+02 
3.081491e+02 -2.331861e+01 -3.793230e+02 
-2.179015e+02 -9.211837e+01 5.647189e+02 
-7.253195e+02 -1.479356e+03 4.613856e+02 
-3.599605e+02 -2.220945e+01 7.399251e+01 
-3.009219e+02 -1.796880e+02 -2.689333e+02 
-5.255257e+02 -3.646418e+02 1.098185e+03 
-3.332733e+02 1.055440e+02 -3.482838e+02 
-2.730085e+02 -4.591017e+02 -6.593018e+01 
-1.234368e+02 -4.551164e+00 -1.498813e+02 
-1.571285e+02 -4.778114e+02 -1.413773e+02 
2.740787e+02 -5.264235e+02 2.636081e+02 
-7.749032e+01 -7.127521e+02 -4.272939e+02 
8.133603e+02 -2.714799e+02 -5.647217e+02 
1.844555e+02 1.392192e+02 -1.287236e+02 
1.898864e+02 6.119764e+01 -2.184410e+02 
-3.925991e+02 1.898352e+02 5.856435e+02 
-1.898409e+02 6.464538e+01 -4.136777e+02 
-3.979806e+02 -3.677364e+02 -1.428983e+02 
-9.319349e+02 3.522516e+01 1.405231e+02 
2.537845e+02 3.044610e+02 6.655273e+02 
-2.076004e+02 -5.721880e+02 2.741242e+02 
-5.578494e+02 3.717152e+02 1.326895e+02 
-3.585111e+02 1.717888e+02 -4.220205e+02 
-3.186993e+02 -2.451522e+02 -8.381652e+01 
-8.855342e+02 -7.144731e+02 -9.485989e+02 
-5.088575e+02 2.153255e+02 -5.168123e+02 
-1.516273e+02 5.245095e+02 1.052166e+03 
1.815895e+02 2.295781e+02 -3.905968e+01 
4.694491e+01 -5.080391e+02 5.826891e+02 
7.276320e+02 -4.370421e+02 3.064612e+01 
7.367547e+01 -8.926861e+01 -3.171031e+02 
-8.192411e+02 -9.422343e+02 1.032268e+02 
-5.837580e+02 1.085479e+02 -2.347645e+02 
-1.039883e+02 1.938648e+02 -4.166155e+02 
-3.776557e+02 -6.143753e+02 1.002531e+02 
3.241505e+02 5.678530e+01 -5.802731e+02 
-6.806878e+02 -6.917001e+02 -4.535659e+02 
2.288596e+02 1.414264e+02 -9.781517e+01 
-1.281875e+02 7.273851e+02 -2.570185e+02 
-3.676419e+02 1.682902e+02 8.956011e-01 
-4.976762e+02 5.038800e+02 1.178462e+03 
-6.600888e+02 -1.555246e+02 1.724103e+02 
1.363215e+02 -1.000408e+03 4.028449e+02 
1.580040e+02 -5.214100e+02 6.004636e+02 
1.333129e+02 1.276534e+02 6.623475e+02 
1.013527e+03 -4.110538e+02 5.226788e+02 
-6.917107e+01 -3.885403e+02 2.840602e+02 
1.678227e+02 3.744123e+02 4.222156e+02 
-1.161426e+03 4.071662e+02 -5.792948e+02 
-3.801274e+01 5.270513e+02 1.096591e+02 
-5.843042e+02 2.420742e+02 6.284959e+02 
-1.339524e+02 -1.275679e+03 9.492227e+02 
-6.971453e+02 7.819812e+01 -1.192490e+02 
-2.630657e+02 1.032204e+03 -2.800978e+02 
-7.089854e+01 -1.158293e+03 -7.202205e+02 
2.475782e+02 7.226679e+02 2.989172e+02 
-3.047237e+02 -7.868771e+02 -8.990673e+02 
3.368724e+01 -6.368086e+01 -3.143628e+02 
1.449506e+02 -8.547335e+02 -7.423216e+02 
-1.049045e+03 1.138382e+02 5.793136e+02 
1.310473e+03 5.750186e+02 6.718257e+00 
-5.475940e+02 4.845970e+01 5.997142e+00 
1.638157e+02 8.056392e+00 8.132450e+02 
-2.590607e+02 4.426151e+02 1.538342e+02 
1.924199e+01 -2.213609e+02 6.911673e+01 
4.817371e+02 -3.110965e+02 -1.785710e+02 
2.432445e+02 -6.861944e+02 -4.443038e+01 
2.787785e+02 -3.303943e+01 -1.798826e+02 
-5.373370e+02 5.653164e+02 1.164019e+01 
1.309176e+02 -1.953938e+02 -1.338306e+02 
2.663885e+02 -2.879419e+02 4.475158e+02 
9.159181e+02 -3.737398e+01 -8.689169e+02 
3.724482e+02 6.518065e+02 6.610389e+02 
-6.951693e+02 -2.327946e+02 7.342058e+02 
-3.696047e+02 1.109943e+03 -7.859606e+02 
-7.400934e+02 9.654828e+02 -1.358784e+02 
4.322659e+02 -1.417942e+02 1.532031e+02 
4.494826e+02 4.322829e+02 -4.114943e+02 
-9.201841e+02 -4.976840e+01 1.907069e+02 
-2.625663e+02 4.898495e+02 7.979413e+01 
7.170768e+02 6.131920e+02 -8.727123e+01 
1.243292e+02 1.293916e+03 2.994595e+02 
6.151769e+02 3.518655e+02 -4.451139e+02 
-4.366748e+02 -3.177814e+02 -1.687596e+02 
0.000000e+00 0.000000e+00 0.000000e+00 
0.000000e+00 0.000000e+00 0.000000e+00 
0.000000e+00 0.000000e+00 0.000000e+00 
0.000000e+00 0.000000e+00 0.000000e+00 
0.000000e+00 0.000000e+00 0.000000e+00 
0.000000e+00 0.000000e+00 0.000000e+00 
0.000000e+00 0.000000e+00 0.000000e+00 
0.000000e+00 0.000000e+00 0.000000e+00 
0.000000e+00 0.000000e+00 0.000000e+00 
0.000000e+00 0.000000e+00 0.000000e+00 
0.000000e+00 0.000000e+00 0.000000e+00 
0.000000e+00 0.000000e+00 0.000000e+00 
0.000000e+00 0.000000e+00 0.000000e+00 
0.000000e+00 0.000000e+00 0.000000e+00 
0.000000e+00 0.000000e+00 0.000000e+00 
0.000000e+00 0.000000e+00 0.000000e+00 
0.000000e+00 0.000000e+00 0.000000e+00 
0.000000e+00 0.000000e+00 0.000000e+00 
0.000000e+00 0.000000e+00 0.000000e+00 
0.000000e+00 0.000000e+00 0.000000e+00 
0.000000e+00 0.000000e+00 0.000000e+00 
0.000000e+00 0.000000e+00 0.000000e+00 
0.000000e+00 0.000000e+00 0.000000e+00 
0.000000e+00 0.000000e+00 0.000000e+00 
0.000000e+00 0.000000e+00 0.000000e+00 
0.000000e+00 0.000000e+00 0.000000e+00 
0.000000e+00 0.000000e+00 0.000000e+00 
0.000000e+00 0.000000e+00 0.000000e+00 
0.000000e+00 0.000000e+00 0.000000e+00 
0.000000e+00 0.000000e+00 0.000000e+00 
0.000000e+00 0.000000e+00 0.000000e+00 
0.000000e+00 0.000000e+00 0.000000e+00 
0.000000e+00 0.000000e+00 0.000000e+00 
0.000000e+00 0.000000e+00 0.000000e+00 
0.000000e+00 0.000000e+00 0.000000e+00 
0.000000e+00 0.000000e+00 0.000000e+00 
0.000000e+00 0.000000e+00 0.000000e+00 
0.000000e+00 0.000000e+00 0.000000e+00 
0.000000e+00 0.000000e+00 0.000000e+00 
0.000000e+00 0.000000e+00 0.000000e+00 
0.000000e+00 0.000000e+00 0.000000e+00 
0.000000e+00 0.000000e+00 0.000000e+00 
0.000000e+00 0.000000e+00 0.000000e+00 
0.000000e+00 0.000000e+00 0.000000e+00 
0.000000e+00 0.000000e+00 0.000000e+00 
0.000000e+00 0.000000e+00 0.000000e+00 
0.000000e+00 0.000000e+00 0.000000e+00 
0.000000e+00 0.000000e+00 0.000000e+00 
0.000000e+00 0.000000e+00 0.000000e+00 
0.000000e+00 0.000000e+00 0.000000e+00 
0.000000e+00 0.000000e+00 0.000000e+00 
0.000000e+00 0.000000e+00 0.000000e+00 
0.000000e+00 0.000000e+00 0.000000e+00 
0.000000e+00 0.000000e+00 0.000000e+00 
0.000000e+00 0.000000e+00 0.000000e+00 
0.000000e+00 0.000000e+00 0.000000e+00 
0.000000e+00 0.000000e+00 0.000000e+00 
0.000000e+00 0.000000e+00 0.000000e+00 
0.000000e+00 0.000000e+00 0.000000e+00 
0.000000e+00 0.000000e+00 0.000000e+00 
0.000000e+00 0.000000e+00 0.000000e+00 
0.000000e+00 0.000000e+00 0.000000e+00 
0.000000e+00 0.000000e+00 0.000000e+00 
0.000000e+00 0.000000e+00 0.000000e+00 
0.000000e+00 0.000000e+00 0.000000e+00 
0.000000e+00 0.000000e+00 0.000000e+00 
0.000000e+00 0.000000e+00 0.000000e+00 
0.000000e+00 0.000000e+00 0.000000e+00 
0.000000e+00 0.000000e+00 0.000000e+00 
0.000000e+00 0.000000e+00 0.000000e+00 
0.000000e+00 0.000000e+00 0.000000e+00 
0.000000e+00 0.000000e+00 0.000000e+00 
0.000000e+00 0.000000e+00 0.000000e+00 
0.000000e+00 0.000000e+00 0.000000e+00 
0.000000e+00 0.000000e+00 0.000000e+00 
0.000000e+00 0.000000e+00 0.000000e+00 
0.000000e+00 0.000000e+00 0.000000e+00 
0.000000e+00 0.000000e+00 0.000000e+00 
0.000000e+00 0.000000e+00 0.000000e+00 
0.000000e+00 0.000000e+00 0.000000e+00 
0.000000e+00 0.000000e+00 0.000000e+00 
0.000000e+00 0.000000e+00 0.000000e+00 
0.000000e+00 0.000000e+00 0.000000e+00 
0.000000e+00 0.000000e+00 0.000000e+00 
0.000000e+00 0.000000e+00 0.000000e+00 
0.000000e+00 0.000000e+00 0.000000e+00 
0.000000e+00 0.000000e+00 0.000000e+00 
0.000000e+00 0.000000e+00 0.000000e+00 
0.000000e+00 0.000000e+00 0.000000e+00 
0.000000e+00 0.000000e+00 0.000000e+00 
0.000000e+00 0.000000e+00 0.000000e+00 
0.000000e+00 0.000000e+00 0.000000e+00 
0.000000e+00 0.000000e+00 0.000000e+00 
0.000000e+00 0.000000e+00 0.000000e+00 
0.000000e+00 0.000000e+00 0.000000e+00 
0.000000e+00 0.000000e+00 0.000000e+00 
0.000000e+00 0.000000e+00 0.000000e+00 
0.000000e+00 0.000000e+00 0.000000e+00 
0.000000e+00 0.000000e+00 0.000000e+00 
0.000000e+00 0.000000e+00 0.000000e+00 
0.000000e+00 0.000000e+00 0.000000e+00 
0.000000e+00 0.000000e+00 0.000000e+00 
0.000000e+00 0.000000e+00 0.000000e+00 
0.000000e+00 0.000000e+00 0.000000e+00 
0.000000e+00 0.000000e+00 0.000000e+00 
0.000000e+00 0.000000e+00 0.000000e+00 
0.000000e+00 0.000000e+00 0.000000e+00 
0.000000e+00 0.000000e+00 0.000000e+00 
0.000000e+00 0.000000e+00 0.000000e+00 
0.000000e+00 0.000000e+00 0.000000e+00 
0.000000e+00 0.000000e+00 0.000000e+00 
0.000000e+00 0.000000e+00 0.000000e+00 
0.000000e+00 0.000000e+00 0.000000e+00 
0.000000e+00 0.000000e+00 0.000000e+00 
0.000000e+00 0.000000e+00 0.000000e+00 
0.000000e+00 0.000000e+00 0.000000e+00 
0.000000e+00 0.000000e+00 0.000000e+00 
0.000000e+00 0.000000e+00 0.000000e+00 
0.000000e+00 0.000000e+00 0.000000e+00 
0.000000e+00 0.000000e+00 0.000000e+00 
0.000000e+00 0.000000e+00 0.000000e+00 
0.000000e+00 0.000000e+00 0.000000e+00 
0.000000e+00 0.000000e+00 0.000000e+00 
0.000000e+00 0.000000e+00 0.000000e+00 
0.000000e+00 0.000000e+00 0.000000e+00 
0.000000e+00 0.000000e+00 0.000000e+00 
0.000000e+00 0.000000e+00 0.000000e+00 
0.000000e+00 0.000000e+00 0.000000e+00 
0.000000e+00 0.000000e+00 0.000000e+00 
0.000000e+00 0.000000e+00 0.000000e+00 
0.000000e+00 0.000000e+00 0.000000e+00 
0.000000e+00 0.000000e+00 0.000000e+00 
0.000000e+00 0.000000e+00 0.000000e+00 
0.000000e+00 0.000000e+00 0.000000e+00 
0.000000e+00 0.000000e+00 0.000000e+00 
0.000000e+00 0.000000e+00 0.000000e+00 
0.000000e+00 0.000000e+00 0.000000e+00 
0.000000e+00 0.000000e+00 0.000000e+00 
0.000000e+00 0.000000e+00 0.000000e+00 
0.000000e+00 0.000000e+00 0.000000e+00 
0.000000e+00 0.000000e+00 0.000000e+00 
0.000000e+00 0.000000e+00 0.000000e+00 
0.000000e+00 0.000000e+00 0.000000e+00 
0.000000e+00 0.000000e+00 0.000000e+00 
0.000000e+00 0.000000e+00 0.000000e+00 
0.000000e+00 0.000000e+00 0.000000e+00 
0.000000e+00 0.000000e+00 0.000000e+00 
0.000000e+00 0.000000e+00 0.000000e+00 
0.000000e+00 0.000000e+00 0.000000e+00 
0.000000e+00 0.000000e+00 0.000000e+00 
0.000000e+00 0.000000e+00 0.000000e+00 
0.000000e+00 0.000000e+00 0.000000e+00 
0.000000e+00 0.000000e+00 0.000000e+00 
0.000000e+00 0.000000e+00 0.000000e+00 
0.000000e+00 0.000000e+00 0.000000e+00 
0.000000e+00 0.000000e+00 0.000000e+00 
0.000000e+00 0.000000e+00 0.000000e+00 
0.000000e+00 0.000000e+00 0.000000e+00 
0.000000e+00 0.000000e+00 0.000000e+00 
0.000000e+00 0.000000e+00 0.000000e+00 
0.000000e+00 0.000000e+00 0.000000e+00 
0.000000e+00 0.000000e+00 0.000000e+00 
0.000000e+00 0.000000e+00 0.000000e+00 
0.000000e+00 0.000000e+00 0.000000e+00 
0.000000e+00 0.000000e+00 0.000000e+00 
0.000000e+00 0.000000e+00 0.000000e+00 
0.000000e+00 0.000000e+00 0.000000e+00 
0.000000e+00 0.000000e+00 0.000000e+00 
0.000000e+00 0.000000e+00 0.000000e+00 
0.000000e+00 0.000000e+00 0.000000e+00 
0.000000e+00 0.000000e+00 0.000000e+00 
0.000000e+00 0.000000e+00 0.000000e+00 
0.000000e+00 0.000000e+00 0.000000e+00 
0.000000e+00 0.000000e+00 0.000000e+00 
0.000000e+00 0.000000e+00 0.000000e+00 
0.000000e+00 0.000000e+00 0.000000e+00 
0.000000e+00 0.000000e+00 0.000000e+00 
0.000000e+00 0.000000e+00 0.000000e+00 
0.000000e+00 0.000000e+00 0.000000e+00 
0.000000e+00 0.000000e+00 0.000000e+00 
0.000000e+00 0.000000e+00 0.000000e+00 
0.000000e+00 0.000000e+00 0.000000e+00 
0.000000e+00 0.000000e+00 0.000000e+00 
0.000000e+00 0.000000e+00 0.000000e+00 
0.000000e+00 0.000000e+00 0.000000e+00 
0.000000e+00 0.000000e+00 0.000000e+00 
0.000000e+00 0.000000e+00 0.000000e+00 
0.000000e+00 0.000000e+00 0.000000e+00 
0.000000e+00 0.000000e+00 0.000000e+00 
0.000000e+00 0.000000e+00 0.000000e+00 
0.000000e+00 0.000000e+00 0.000000e+00 
0.000000e+00 0.000000e+00 0.000000e+00 
0.000000e+00 0.000000e+00 0.000000e+00 
0.000000e+00 0.000000e+00 0.000000e+00 
0.000000e+00 0.000000e+00 0.000000e+00 
0.000000e+00 0.000000e+00 0.000000e+00 
0.000000e+00 0.000000e+00 0.000000e+00 
0.000000e+00 0.000000e+00 0.000000e+00 
0.000000e+00 0.000000e+00 0.000000e+00 
0.000000e+00 0.000000e+00 0.000000e+00 
0.000000e+00 0.000000e+00 0.000000e+00 
0.000000e+00 0.000000e+00 0.000000e+00 
0.000000e+00 0.000000e+00 0.000000e+00 
0.000000e+00 0.000000e+00 0.000000e+00 
0.000000e+00 0.000000e+00 0.000000e+00 
0.000000e+00 0.000000e+00 0.000000e+00 
0.000000e+00 0.000000e+00 0.000000e+00 
0.000000e+00 0.000000e+00 0.000000e+00 
0.000000e+00 0.000000e+00 0.000000e+00 
0.000000e+00 0.000000e+00 0.000000e+00 
0.000000e+00 0.000000e+00 0.000000e+00 
0.000000e+00 0.000000e+00 0.000000e+00 
0.000000e+00 0.000000e+00 0.000000e+00 
0.000000e+00 0.000000e+00 0.000000e+00 
0.000000e+00 0.000000e+00 0.000000e+00 
0.000000e+00 0.000000e+00 0.000000e+00 
0.000000e+00 0.000000e+00 0.000000e+00 
0.000000e+00 0.000000e+00 0.000000e+00 
0.000000e+00 0.000000e+00 0.000000e+00 
0.000000e+00 0.000000e+00 0.000000e+00 
0.000000e+00 0.000000e+00 0.000000e+00 
0.000000e+00 0.000000e+00 0.000000e+00 
0.000000e+00 0.000000e+00 0.000000e+00 
0.000000e+00 0.000000e+00 0.000000e+00 
0.000000e+00 0.000000e+00 0.000000e+00 
0.000000e+00 0.000000e+00 0.000000e+00 
0.000000e+00 0.000000e+00 0.000000e+00 
0.000000e+00 0.000000e+00 0.000000e+00 
0.000000e+00 0.000000e+00 0.000000e+00 
0.000000e+00 0.000000e+00 0.000000e+00 
0.000000e+00 0.000000e+00 0.000000e+00 
0.000000e+00 0.000000e+00 0.000000e+00 
0.000000e+00 0.000000e+00 0.000000e+00 
0.000000e+00 0.000000e+00 0.000000e+00 
0.000000e+00 0.000000e+00 0.000000e+00 
0.000000e+00 0.000000e+00 0.000000e+00 
0.000000e+00 0.000000e+00 0.000000e+00 
0.000000e+00 0.000000e+00 0.000000e+00 
0.000000e+00 0.000000e+00 0.000000e+00 
0.000000e+00 0.000000e+00 0.000000e+00 
0.000000e+00 0.000000e+00 0.000000e+00 
0.000000e+00 0.000000e+00 0.000000e+00 
0.000000e+00 0.000000e+00 0.000000e+00 
0.000000e+00 0.000000e+00 0.000000e+00 
0.000000e+00 0.000000e+00 0.000000e+00 
0.000000e+00 0.000000e+00 0.000000e+00 
0.000000e+00 0.000000e+00 0.000000e+00 
0.000000e+00 0.000000e+00 0.000000e+00 
0.000000e+00 0.000000e+00 0.000000e+00 
0.000000e+00 0.000000e+00 0.000000e+00 
0.000000e+00 0.000000e+00 0.000000e+00 
0.000000e+00 0.000000e+00 0.000000e+00 
0.000000e+00 0.000000e+00 0.000000e+00 
0.000000e+00 0.000000e+00 0.000000e+00 
0.000000e+00 0.000000e+00 0.000000e+00 
0.000000e+00 0.000000e+00 0.000000e+00 
0.000000e+00 0.000000e+00 0.000000e+00 
0.000000e+00 0.000000e+00 0.000000e+00 
0.000000e+00 0.000000e+00 0.000000e+00 
0.000000e+00 0.000000e+00 0.000000e+00 
0.000000e+00 0.000000e+00 0.000000e+00 
0.000000e+00 0.000000e+00 0.000000e+00 
0.000000e+00 0.000000e+00 0.000000e+00 
0.000000e+00 0.000000e+00 0.000000e+00 
0.000000e+00 0.000000e+00 0.000000e+00 
0.000000e+00 0.000000e+00 0.000000e+00 
0.000000e+00 0.000000e+00 0.000000e+00 
0.000000e+00 0.000000e+00 0.000000e+00 
0.000000e+00 0.000000e+00 0.000000e+00 
0.000000e+00 0.000000e+00 0.000000e+00 
0.000000e+00 0.000000e+00 0.000000e+00 
0.000000e+00 0.000000e+00 0.000000e+00 
0.000000e+00 0.000000e+00 0.000000e+00 
0.000000e+00 0.000000e+00 0.000000e+00 
0.000000e+00 0.000000e+00 0.000000e+00 
0.000000e+00 0.000000e+00 0.000000e+00 
0.000000e+00 0.000000e+00 0.000000e+00 