# vtk DataFile Version 3.1
*description-name of input file* step:2401 
ASCII
DATASET UNSTRUCTURED_GRID
POINTS 1605 FLOAT
-7.224294e-09 -5.485916e-09 -2.521738e-10
-7.810936e-09 -4.580983e-09 -7.060997e-10
-6.213819e-09 -4.776704e-09 -7.421306e-10
-7.716762e-09 -4.121473e-09 2.133072e-09
-5.677527e-09 -6.017271e-09 -1.322284e-10
1.210860e-08 6.830143e-09 -1.057730e-08
1.357546e-08 7.087297e-09 -1.101125e-08
1.274333e-08 5.810740e-09 -1.204062e-08
-6.393805e-09 -6.205081e-09 7.775200e-10
-6.252723e-09 -2.819772e-09 9.032344e-10
-4.507259e-09 -4.559787e-09 -1.084034e-09
-6.171883e-09 -2.808720e-09 -2.994688e-10
-5.532369e-09 -5.241637e-09 2.192404e-09
-5.965470e-09 -3.616370e-09 1.732010e-09
-5.191671e-09 -3.516086e-09 -1.607819e-09
-7.369902e-09 -4.247515e-09 3.172787e-09
-3.646404e-09 -5.602370e-09 9.863322e-11
-6.558524e-09 -9.856123e-10 1.002282e-10
-5.409492e-09 -1.350591e-09 -7.824104e-10
-3.782144e-09 -3.913315e-09 -3.258355e-09
-5.159861e-09 -2.474803e-09 -3.096411e-09
-4.019560e-09 -1.767326e-09 -3.990585e-09
-6.401229e-09 -2.399492e-09 2.350810e-09
-5.682501e-09 -1.149818e-10 -2.428816e-09
-6.166027e-09 5.091338e-10 -8.826473e-10
-3.529330e-09 -4.731159e-09 1.935222e-09
-7.338302e-09 -1.076529e-09 1.278486e-09
-5.875794e-09 -3.316230e-09 4.033874e-09
-4.150655e-09 -2.187188e-09 -3.377074e-10
-8.033622e-09 -2.103710e-09 3.172664e-09
-2.430336e-09 -4.430219e-09 -2.311259e-09
-2.808486e-09 -3.173795e-09 -4.069804e-09
-2.348944e-09 -4.242257e-09 -3.463088e-09
-3.578176e-09 -3.561406e-09 -6.915954e-10
-6.063819e-09 -2.223620e-09 4.076332e-09
-4.168131e-09 -7.243036e-10 -2.167634e-09
-5.705061e-09 -6.231676e-10 2.187478e-09
-4.682718e-09 -3.109082e-10 6.173341e-10
-2.968991e-09 -2.119732e-09 -2.067761e-09
-4.033616e-09 -3.955796e-09 3.716350e-09
-4.719573e-09 4.720155e-11 -5.010508e-10
-3.885262e-09 6.785607e-10 -5.049909e-09
-3.928263e-09 5.195756e-10 -2.954957e-09
-4.867152e-09 9.761763e-10 -3.589934e-09
-4.167400e-09 -2.528030e-09 2.161316e-09
-1.684451e-09 -3.221152e-09 -6.979206e-10
-4.543172e-09 2.438593e-09 -4.478930e-09
-2.673042e-09 -1.416842e-09 -3.286777e-09
-2.963508e-09 2.185065e-10 -2.584567e-09
-1.467910e-09 -1.745913e-09 -3.148378e-09
-3.326963e-09 4.037303e-10 -7.056617e-10
-3.214179e-09 -2.021760e-09 2.000154e-10
-3.433395e-09 1.122350e-10 -5.003881e-09
-1.807564e-09 -2.326027e-09 -1.654019e-09
-3.719408e-09 -6.713120e-10 8.307528e-09
-2.161330e-09 -1.852867e-09 7.504372e-09
-1.879786e-09 3.805130e-10 7.458299e-09
-1.667381e-09 8.060889e-10 -4.009405e-09
-5.892607e-09 -3.183434e-09 6.148046e-09
-4.484333e-09 2.362942e-09 -2.579883e-09
-3.717992e-09 -2.795756e-09 3.907930e-09
-4.407304e-09 -3.865433e-10 2.699315e-09
-3.875309e-09 -1.410935e-09 1.513826e-09
-5.550992e-09 2.355722e-09 -4.107195e-10
-5.162196e-09 8.172172e-10 1.068102e-09
-6.514750e-09 1.958063e-09 1.944317e-09
-4.963670e-09 -4.482414e-09 5.781268e-09
-4.635787e-09 -3.837547e-09 7.104949e-09
-6.338331e-09 -1.585949e-09 6.754730e-09
-1.998027e-09 1.833209e-09 2.059430e-09
-7.838425e-11 2.067810e-09 4.082011e-09
-1.063386e-09 1.987463e-09 7.808068e-10
-4.655450e-09 4.618692e-10 -8.784694e-10
-3.018339e-09 -4.343532e-09 5.341669e-09
9.967650e-10 3.526089e-10 3.658504e-09
1.005867e-09 1.042076e-09 4.383363e-09
-5.707545e-11 7.527717e-10 5.577118e-09
-5.599126e-09 3.179430e-09 1.389733e-09
-4.805820e-09 -1.555750e-09 5.506965e-09
-1.149366e-09 -1.198314e-10 -1.284457e-09
-4.649437e-09 -2.062401e-09 4.591578e-09
-3.432321e-09 2.914012e-10 8.038139e-10
-2.133984e-09 -5.168503e-10 -2.970450e-11
-5.755175e-09 2.276335e-09 3.977350e-09
-2.574775e-09 -5.146269e-09 3.512598e-09
-3.070358e-09 2.623912e-09 -4.015359e-09
-2.287760e-09 -3.588722e-09 2.663471e-09
-5.823787e-09 -5.555655e-10 5.377621e-09
-2.928081e-09 1.926095e-09 -2.112591e-09
-4.270611e-09 -6.692774e-11 4.793981e-09
-2.898151e-09 -2.950808e-09 5.156622e-09
-5.757793e-09 -7.331982e-10 4.068019e-09
-3.189205e-09 -1.077210e-09 4.273063e-09
-3.085535e-10 -1.414975e-09 2.205587e-10
-4.401661e-09 3.261986e-09 2.562781e-09
-3.585891e-09 2.760085e-09 -8.261496e-10
-1.587783e-10 -1.352953e-09 -3.302425e-09
2.161130e-10 -2.602602e-09 -2.617258e-09
-4.012336e-09 -2.407728e-09 7.940293e-09
-5.323757e-09 -1.506492e-09 7.619619e-09
-5.349723e-09 1.390339e-10 7.762691e-09
7.570151e-10 2.144373e-09 3.138094e-09
-3.767442e-09 1.369769e-09 8.589129e-10
-4.043249e-09 2.917317e-09 3.895196e-10
-6.501770e-09 1.178255e-09 4.771879e-09
-4.371228e-09 1.407850e-11 3.449986e-09
-3.707116e-09 -2.682935e-09 6.385716e-09
-9.210180e-11 -4.991056e-11 -3.105693e-09
-1.384425e-09 -2.675891e-09 3.652154e-09
-4.987499e-09 1.449566e-09 6.718692e-09
-3.587308e-09 7.895696e-10 3.339591e-09
-4.161029e-09 2.382386e-09 5.489483e-09
-4.206132e-09 1.971544e-09 2.981926e-09
-3.900483e-10 -4.037842e-09 2.661853e-09
7.835395e-10 -3.605332e-09 4.458068e-09
-3.996022e-09 2.229622e-09 2.070175e-09
4.465578e-10 -1.825725e-09 -4.599662e-10
-4.117953e-09 2.885772e-09 4.108668e-09
1.508861e-09 -9.297731e-10 -3.358132e-09
-7.286817e-10 -3.991432e-09 6.314169e-09
-6.663115e-10 -5.084960e-10 1.292799e-09
-2.133356e-09 -3.326931e-09 6.358694e-09
-2.006770e-09 -2.282958e-09 5.621808e-09
-1.582685e-09 -3.619298e-10 2.634384e-09
-1.280462e-09 -1.760881e-09 4.444272e-09
-2.693714e-09 1.290210e-09 3.696417e-09
1.918094e-09 -1.111667e-09 -1.337027e-09
7.747527e-10 6.691904e-10 -1.378893e-09
1.451161e-09 -6.987395e-10 5.818645e-09
-3.198813e-09 1.194025e-09 5.983265e-09
8.567354e-10 5.869245e-10 -3.317828e-09
1.057952e-09 -4.748393e-09 3.073157e-09
-8.301584e-10 -7.386417e-10 3.985955e-09
1.071264e-09 -1.096911e-09 -1.330835e-10
4.378537e-10 -3.475382e-09 5.533696e-09
-3.079311e-09 8.256244e-10 7.374305e-09
-2.475022e-09 2.147814e-09 5.717344e-09
-1.237614e-09 -2.020504e-09 6.692502e-09
2.168979e-09 -4.647820e-09 3.724559e-09
2.006487e-09 -3.543129e-09 2.567906e-09
-3.790661e-10 -1.535777e-09 2.915289e-09
-2.818374e-10 -2.685999e-09 7.013318e-09
1.425037e-09 -1.703257e-09 1.773173e-09
1.997051e-09 -3.202540e-10 -2.392372e-09
-1.146070e-09 1.575051e-09 3.640947e-09
-8.273187e-10 -1.301650e-09 8.173451e-09
1.810658e-09 4.885895e-10 -8.972606e-11
2.607396e-09 -3.688446e-09 4.768468e-09
3.309398e-09 -4.043014e-09 3.554894e-09
1.883372e-09 1.175371e-09 -1.432140e-09
3.957490e-10 -2.335246e-09 6.497258e-09
-1.684560e-09 8.996811e-10 5.134121e-09
2.933334e-09 -4.554652e-10 1.010011e-09
2.544818e-09 5.017757e-10 -4.203502e-09
1.793702e-09 -2.755768e-09 5.050176e-09
3.876622e-09 -2.631777e-09 2.381514e-09
3.619754e-09 3.962352e-10 -2.224896e-09
2.780526e-09 2.404811e-09 -2.567086e-09
2.642202e-09 2.403111e-09 -4.304969e-09
3.437357e-09 1.096930e-09 -4.016271e-09
4.465306e-09 1.823381e-09 -5.486100e-09
1.227289e-09 -1.526377e-09 4.370849e-09
6.568465e-10 -7.177520e-10 7.517726e-09
2.852044e-09 -7.963321e-10 2.034288e-09
1.395692e-09 1.340927e-09 4.790475e-10
2.177624e-09 1.486061e-09 -3.580385e-10
4.551927e-09 1.586859e-09 -3.639135e-09
2.855497e-10 1.359511e-09 7.296152e-09
1.399504e-09 1.081292e-09 2.140666e-09
2.987391e-09 -2.199574e-09 3.460575e-09
2.178483e-09 -3.786650e-12 3.355269e-09
3.709533e-09 -6.926128e-10 2.118864e-09
4.250545e-09 2.676672e-09 -3.556769e-09
3.043351e-09 7.327471e-10 -8.275887e-10
3.334405e-09 1.481496e-09 -2.044000e-09
4.751619e-09 2.754204e-09 -5.157228e-09
3.482644e-09 1.200272e-09 8.892032e-10
5.352470e-09 1.930366e-09 -5.977920e-09
5.267384e-09 1.664444e-09 -4.580318e-09
3.802907e-09 -1.688802e-10 4.388889e-11
3.181037e-09 1.094994e-09 2.627956e-09
6.496443e-09 1.534992e-09 -5.696381e-09
5.914238e-09 2.752729e-09 -4.113407e-09
7.555500e-09 3.025963e-09 -6.710399e-09
6.922830e-09 2.171008e-09 -4.927849e-09
7.291298e-09 2.135874e-09 -6.215795e-09
6.223296e-09 3.511789e-09 -5.168188e-09
7.172931e-09 3.234957e-09 -5.491139e-09
8.646131e-09 2.816129e-09 -5.703264e-09
8.615127e-09 2.833952e-09 -7.090357e-09
8.628982e-09 4.300977e-09 -6.651985e-09
9.723711e-09 2.994691e-09 -6.535742e-09
1.029585e-08 4.469633e-09 -7.753974e-09
1.026754e-08 5.175345e-09 -7.790178e-09
9.353147e-09 4.097324e-09 -5.814615e-09
1.111010e-08 4.621582e-09 -6.611028e-09
1.015946e-08 4.986492e-09 -6.211517e-09
1.114413e-08 5.030502e-09 -8.533654e-09
1.123650e-08 6.629010e-09 -7.563694e-09
1.128649e-08 5.428586e-09 -6.394957e-09
1.284288e-08 4.910842e-09 -8.133527e-09
1.146543e-08 6.461181e-09 -9.944738e-09
1.172647e-08 5.809310e-09 -1.033000e-08
1.118597e-08 5.976475e-09 -8.948866e-09
1.236798e-08 4.973435e-09 -8.976265e-09
1.155919e-08 5.926729e-09 -7.031103e-09
1.296290e-08 5.618031e-09 -8.119211e-09
1.342247e-08 4.970478e-09 -8.951786e-09
1.398144e-08 4.874507e-09 -1.063200e-08
1.184529e-08 6.785118e-09 -8.671832e-09
1.426045e-08 6.620727e-09 -1.047689e-08
1.429800e-08 6.240726e-09 -9.006572e-09
1.375230e-08 7.654596e-09 -9.151923e-09
2.030498e-09 1.330716e-09 -8.950893e-10
-4.324061e-09 -3.122637e-09 7.522621e-09
7.423399e-09 2.580918e-09 -6.463097e-09
7.364216e-09 3.130460e-09 -6.100769e-09
1.242597e-08 6.320441e-09 -1.130896e-08
2.439168e-09 1.270600e-09 6.841254e-10
-4.023268e-09 2.254659e-10 -6.033562e-10
7.909531e-09 3.025543e-09 -5.597201e-09
4.711981e-10 3.208797e-10 7.406939e-09
-1.873066e-10 2.746795e-10 -1.331675e-09
-2.966249e-09 -9.506128e-10 -2.326164e-09
8.085314e-09 2.929958e-09 -6.900378e-09
-4.675743e-09 1.669559e-09 -3.084908e-09
-5.838473e-09 1.387640e-09 1.506209e-09
-7.010156e-11 1.308564e-09 4.012155e-09
1.339225e-09 -1.112558e-09 5.094747e-09
1.028169e-08 4.822489e-09 -7.772076e-09
-4.486908e-09 -3.714701e-09 -2.433087e-09
-4.019635e-09 2.573470e-09 1.229848e-09
-3.308072e-09 -2.873282e-09 4.532276e-09
-6.056938e-09 2.568747e-09 1.667025e-09
1.119830e-08 5.025084e-09 -6.502993e-09
1.142371e-10 1.056142e-09 6.436635e-09
3.413254e-10 3.096399e-10 -2.242293e-09
4.637411e-10 1.554943e-09 4.232687e-09
-4.727629e-09 -1.809075e-09 5.049272e-09
-1.695598e-09 -2.479424e-09 4.636981e-09
-4.222455e-09 3.089651e-09 1.476150e-09
-2.138198e-09 -2.459854e-09 -3.609091e-09
1.315940e-08 6.449019e-09 -1.152594e-08
[...]
POINT_DATA 1605
VECTORS vector_force float
2.761958e+02 2.474223e+02 7.637735e+02 
7.236046e+02 1.268382e+03 -2.061122e+02 
-1.234821e+00 -2.727173e+02 -1.076300e+02 
1.825770e+02 1.136959e+03 3.971188e+02 
-6.534530e+02 3.457530e+02 1.790242e+02 
1.317516e+02 -6.577331e+02 -9.048654e+01 
-6.288729e+02 -1.904705e+02 -2.222441e+02 
-2.949821e+02 6.954764e+02 -2.462746e+02 
9.056413e+01 4.542779e+02 5.830906e+01 
3.561818e+02 3.088113e+02 4.996548e+02 
2.735236e+02 2.342789e+02 3.696018e+02 
8.916324e+02 3.747018e+02 1.945520e+02 
-2.103129e+01 -9.415488e+02 -1.389279e+02 
7.729628e+02 2.805979e+02 3.843234e+02 
4.708260e+02 -4.315851e+02 -2.538337e+02 
-3.565588e+02 2.706196e+02 -8.895970e+02 
-1.027479e+02 -1.683661e+02 -6.394809e+02 
-4.407867e+01 4.506888e+02 -7.605982e+01 
-1.509739e+02 -3.747291e+02 6.584128e+02 
4.907435e+01 -3.478481e+02 5.167519e+02 
-5.079177e+01 -1.216546e+03 -3.252758e+02 
5.228005e+02 -1.693162e+03 4.241505e+02 
3.375975e+02 3.722809e+01 -4.367914e+02 
-6.955929e+02 -1.077262e+03 7.263849e+01 
2.460776e+02 5.254942e+01 -3.264614e+02 
1.470507e+02 -3.739301e+01 3.786031e+02 
-1.415965e+03 -2.876441e+02 -1.769311e+03 
-1.759439e+02 3.044471e+02 2.110627e+02 
-2.495711e+02 -3.006658e+01 -2.551165e+01 
5.580712e+02 1.972080e+02 -4.282043e+02 
7.506558e+02 -5.724119e+02 9.911507e+02 
1.470069e+02 4.298915e+01 1.938712e+02 
5.503488e+02 -1.489462e+02 5.151808e+02 
5.124622e+01 2.013889e+02 -6.241675e+02 
3.679336e+02 -1.084104e+01 -2.115261e+02 
-6.908844e+02 -7.495225e+02 4.665436e+02 
-4.246237e+02 -3.615081e+02 -4.267096e+02 
-4.119049e+02 5.318942e+02 1.630953e+02 
-1.441946e+02 1.674586e+02 -3.708176e+02 
4.557432e+02 2.085503e+02 2.270022e+02 
1.601319e+02 6.768107e+02 -1.891849e+02 
-9.502114e+02 -5.178126e+02 5.411972e+02 
-5.252167e+02 4.802395e+02 7.627852e+01 
-5.484174e+02 4.060983e+02 8.482509e+02 
5.289607e+02 1.523857e+01 -4.517331e+00 
-4.835021e+02 -3.516911e+02 4.808245e+02 
1.505984e+02 3.396801e+02 -9.537867e+01 
2.005380e+02 2.455159e+02 2.796930e+02 
-5.089375e+02 -3.039692e+02 3.501275e+02 
1.759894e+01 8.096413e+02 -4.877933e+01 
1.251710e+02 1.984865e+02 3.970609e+02 
-2.641541e+01 7.532140e+02 -3.069359e+02 
-2.910755e+02 -9.962140e+02 3.711904e+02 
8.594850e+01 9.787780e+01 -1.846846e+00 
7.708070e+00 -2.100914e+02 -3.276458e+02 
1.500110e+02 -6.450895e+02 -1.250291e+02 
7.564640e+02 -5.756991e+02 -1.390791e+01 
6.644596e+01 1.768951e+02 -1.455941e+02 
1.470345e+02 1.682105e+02 8.348970e+02 
1.586219e+02 8.815052e+02 7.465137e+01 
4.772958e+02 5.588788e+02 3.353954e+02 
3.329336e+01 -1.811988e+02 6.778924e+02 
2.448602e+02 4.726375e+02 -2.135285e+02 
1.340362e+03 1.012929e+03 5.853281e+02 
-1.351428e+03 -1.354627e+02 1.499953e+02 
-4.815061e+02 8.673113e+01 2.004006e+02 
-2.552203e+02 8.347792e+02 1.079116e+03 
1.844426e+02 6.974056e+02 8.070727e+02 
4.874210e+02 -5.261747e+02 -7.931035e+02 
6.103874e+02 -2.756658e+02 -5.489419e+02 
1.490332e+00 -5.454016e+02 -2.092646e+02 
1.326752e+02 5.173916e+02 2.688106e+02 
-1.223212e+03 -2.305851e+02 -3.051354e+02 
-6.075381e+02 3.296576e+02 4.532757e+01 
5.490675e+02 -1.819381e+02 -1.936040e+02 
5.456596e+02 -3.284553e+02 1.639187e+02 
4.137768e+02 -2.744874e+02 8.583493e+01 
6.259567e+02 -6.549272e+02 5.178510e+02 
3.896905e+02 -7.302341e+01 -4.263349e+00 
-1.477244e+02 5.647506e+02 -7.813026e+00 
-7.216485e+01 3.508607e+02 -1.448919e+02 
1.747694e+02 -2.965706e+02 -9.358613e+02 
1.993022e+02 7.518508e+02 -5.224004e+02 
1.238915e+01 -3.824837e+02 -1.654057e+02 
-4.519392e+02 7.852689e+02 -1.037043e+03 
7.440689e+02 5.651525e+02 5.807990e+02 
-5.596686e+02 9.243022e+01 2.575695e+02 
8.451531e+02 -4.698600e+01 6.774287e+02 
1.292500e+02 -2.833188e+02 5.990717e+02 
3.199245e+02 1.043348e+02 4.230408e+02 
4.095816e+02 1.681221e+02 -1.659166e+02 
3.173710e+02 -7.871674e+02 1.763288e+02 
2.201759e+02 2.815842e+02 -6.242827e+02 
-6.316596e+02 4.774573e+02 8.563627e+01 
-1.076443e+02 -6.443717e+02 -5.658942e+01 
-1.933501e+00 -1.269009e+02 1.304243e+03 
8.978854e+01 -2.848628e+01 -2.395821e+02 
2.612382e+02 6.566534e+02 4.922987e+02 
1.979358e+02 -4.336543e+02 -1.416515e+02 
3.970314e+02 -5.245614e+02 -7.891167e+01 
-3.259701e+02 9.854695e+02 -2.908633e+02 
1.794956e+02 1.725655e+02 2.473129e+02 
-8.596342e+02 -4.347504e+02 2.941285e+02 
6.670626e+02 -2.453388e+02 1.065663e+03 
-1.968601e+02 -7.820701e+02 2.770502e+02 
3.018590e+02 -6.630539e+01 3.095698e+02 
5.878979e+02 3.369373e+00 -2.780644e+02 
-7.117514e+02 7.834962e+01 -9.219560e+01 
2.428455e+02 3.687739e+02 4.551133e+02 
9.674940e-01 7.600324e+02 3.156262e+02 
2.709646e+02 -5.460269e+02 -5.124595e+01 
-2.323013e+01 9.032422e+00 1.391958e+02 
-3.096010e+02 -6.371981e+02 6.734748e+02 
8.179493e+01 -2.076346e+02 8.718396e+01 
-2.598254e+01 -7.843429e+02 -2.339354e+02 
-4.598880e+02 -8.624825e+02 7.585666e+02 
-1.232676e+03 -4.962221e+02 1.020341e+02 
-1.126614e+03 9.210389e+02 5.354516e+02 
2.059716e+02 -2.696033e+02 -2.389726e+01 
-4.865873e+02 -1.042135e+03 -3.690514e+02 
-2.630628e+02 1.258427e+00 -1.447443e+02 
6.756552e+02 4.227524e+02 -3.429202e+02 
2.886116e+02 -2.057363e+02 3.741308e+01 
7.600782e+02 -9.230285e+02 -1.651648e+02 
-2.476927e+01 5.543855e+00 -1.530596e+01 
2.200237e+02 4.594904e+02 -2.565793e+02 
-7.239893e+02 -5.079160e+02 4.054613e+02 
-2.954874e+02 -4.912392e+02 2.234578e+02 
1.361047e+03 -6.148402e+02 4.905619e+02 
3.040139e+02 -5.323365e+02 2.389672e+02 
-6.982988e+02 -2.889589e+02 -2.092153e+02 
-1.211819e+02 9.962101e+02 6.741480e+02 
2.358045e+02 2.672729e+02 -8.501815e+00 
-7.061030e+02 3.360812e+02 3.093814e+02 
-6.724215e+02 -1.583647e+02 -2.943244e+02 
8.678007e+02 -5.238418e+02 3.111779e+02 
-3.638142e+01 1.922871e+02 3.402003e+02 
3.984320e+02 -2.878062e+02 -8.910665e+02 
2.054364e+02 -1.188224e+02 -4.105440e+02 
2.379575e+02 7.151582e+02 -2.021073e+01 
4.927180e+02 -2.215076e+02 2.491494e+02 
-7.230822e+02 -6.405303e+02 -1.076839e+03 
2.403331e+02 -7.469760e+01 3.983521e+01 
4.179541e+02 -3.765699e+02 -1.272907e+02 
1.681707e+02 -1.503530e+02 1.075494e+01 
3.922075e+02 -5.337117e+02 -6.388167e+02 
-5.120579e+02 1.612220e+02 -7.628984e+02 
1.399834e+03 -3.700393e+02 -1.121104e+03 
2.683601e+02 1.471218e+03 -5.402637e+02 
-5.779278e+02 -1.689073e+02 2.951514e+02 
-5.932707e+01 -2.509198e+01 4.075299e+02 
3.486785e+02 -5.321337e+01 -1.053969e+01 
-1.247946e+02 4.905263e+02 1.969243e+02 
2.363059e+00 4.849924e+02 3.450766e+02 
3.876803e+02 -2.014550e+02 -4.774449e+02 
-2.963823e+02 1.007999e+03 -1.626408e+02 
6.673194e+02 9.318685e+02 2.371668e+02 
-3.602519e+02 9.727441e+02 -7.628894e+02 
9.597844e+01 4.104254e+01 -4.779778e+02 
2.288366e+02 3.908907e+02 -2.837574e+02 
7.817255e+02 -9.456339e+02 -5.756414e+02 
5.717133e+02 -4.672394e+02 -2.245155e+02 
3.849689e+02 3.631201e+02 -3.328320e+02 
-2.374841e+02 -3.608409e+02 -9.010470e+02 
-2.219979e+02 2.293260e+02 -5.417759e+02 
1.914589e+02 2.011605e+02 -4.551381e+02 
5.941631e+01 5.962222e+02 -6.110329e+00 
4.590134e+01 5.702531e+02 4.007582e+02 
2.518449e+02 1.674633e+02 -4.772813e+02 
2.586206e+02 2.883791e+01 -1.326964e+02 
1.572632e+02 -1.812415e+02 -5.915426e+01 
-3.908058e+02 -3.947475e+01 -4.455133e+02 
-2.294370e+02 9.619759e+01 3.924086e+02 
-6.430986e+02 -2.904538e+02 -4.172625e+02 
-1.060931e+02 2.799765e+02 -1.621519e+02 
2.699694e+02 -9.842452e+02 5.776009e+02 
4.338020e+02 3.258748e+02 -8.080259e+02 
3.491423e+02 -5.862359e+02 -3.082785e+02 
5.536385e+01 4.593148e+02 1.875572e+02 
2.087275e+02 -1.961484e+02 -1.123749e+03 
1.293156e+02 -5.252890e+02 -1.066920e+02 
-2.632446e+02 6.744543e+02 3.643409e+02 
-8.239309e+02 -2.317102e+02 1.590704e+02 
5.889947e+02 -6.165384e+02 -1.017068e+03 
5.238343e+02 -3.661408e+02 4.020078e+01 
9.097510e+01 1.978885e+02 -6.581107e+01 
3.813898e+02 -1.386926e+03 1.093436e+02 
-3.634192e+02 7.716134e+02 -7.968599e+02 
-2.714943e+02 -2.936484e+02 3.679182e+01 
7.772649e+02 -5.847216e+02 -4.526138e+02 
3.154403e+02 -4.567241e+02 -1.043123e+02 
-3.086556e+02 5.646640e+02 -2.768852e+02 
-2.969958e+02 3.239367e+02 3.611711e+02 
-4.870183e+02 4.849400e+02 2.466446e+02 
-6.365073e+02 -2.713008e+02 1.069086e+02 
-6.311064e+01 2.343912e+02 3.308581e+02 
-2.098146e+01 1.591421e+02 4.433887e+02 
-6.403574e+02 6.661258e+02 -1.497663e+03 
-5.182037e+01 4.016611e+02 -5.539216e+02 
6.747958e+02 2.937459e+02 1.451214e+02 
-7.721015e+02 -4.411467e+02 1.329665e+03 
-1.040142e+03 7.809599e+01 -2.014066e+02 
-1.528151e+03 -4.503357e+02 6.903840e+02 
-3.407711e+02 7.000855e+02 -6.335593e+02 
-5.344542e+02 -4.355582e+02 -1.868530e+02 
2.336385e+02 -6.332789e+02 -3.183186e+02 
-2.893223e+02 -5.739587e+02 6.243853e+02 
-1.375371e+03 -1.294635e+03 2.062335e+02 
-7.664831e+01 -1.226036e+03 4.127620e+02 
2.364652e+01 2.800101e+02 -1.071969e+03 
-9.110957e+02 -4.742782e+02 1.026120e+02 
-8.757621e+02 -1.329713e+03 -3.454888e+02 
2.829742e+02 -6.379025e+02 -6.357493e+02 
0.000000e+00 0.000000e+00 0.000000e+00 
0.000000e+00 0.000000e+00 0.000000e+00 
0.000000e+00 0.000000e+00 0.000000e+00 
0.000000e+00 0.000000e+00 0.000000e+00 
0.000000e+00 0.000000e+00 0.000000e+00 
0.000000e+00 0.000000e+00 0.000000e+00 
0.000000e+00 0.000000e+00 0.000000e+00 
0.000000e+00 0.000000e+00 0.000000e+00 
0.000000e+00 0.000000e+00 0.000000e+00 
0.000000e+00 0.000000e+00 0.000000e+00 
0.000000e+00 0.000000e+00 0.000000e+00 
0.000000e+00 0.000000e+00 0.000000e+00 
0.000000e+00 0.000000e+00 0.000000e+00 
0.000000e+00 0.000000e+00 0.000000e+00 
0.000000e+00 0.000000e+00 0.000000e+00 
0.000000e+00 0.000000e+00 0.000000e+00 
0.000000e+00 0.000000e+00 0.000000e+00 
0.000000e+00 0.000000e+00 0.000000e+00 
0.000000e+00 0.000000e+00 0.000000e+00 
0.000000e+00 0.000000e+00 0.000000e+00 
0.000000e+00 0.000000e+00 0.000000e+00 
0.000000e+00 0.000000e+00 0.000000e+00 
0.000000e+00 0.000000e+00 0.000000e+00 
0.000000e+00 0.000000e+00 0.000000e+00 
0.000000e+00 0.000000e+00 0.000000e+00 
0.000000e+00 0.000000e+00 0.000000e+00 
0.000000e+00 0.000000e+00 0.000000e+00 
0.000000e+00 0.000000e+00 0.000000e+00 
0.000000e+00 0.000000e+00 0.000000e+00 
0.000000e+00 0.000000e+00 0.000000e+00 
0.000000e+00 0.000000e+00 0.000000e+00 
0.000000e+00 0.000000e+00 0.000000e+00 
0.000000e+00 0.000000e+00 0.000000e+00 
0.000000e+00 0.000000e+00 0.000000e+00 
0.000000e+00 0.000000e+00 0.000000e+00 
0.000000e+00 0.000000e+00 0.000000e+00 
0.000000e+00 0.000000e+00 0.000000e+00 
0.000000e+00 0.000000e+00 0.000000e+00 
0.000000e+00 0.000000e+00 0.000000e+00 
0.000000e+00 0.000000e+00 0.000000e+00 
0.000000e+00 0.000000e+00 0.000000e+00 
0.000000e+00 0.000000e+00 0.000000e+00 
0.000000e+00 0.000000e+00 0.000000e+00 
0.000000e+00 0.000000e+00 0.000000e+00 
0.000000e+00 0.000000e+00 0.000000e+00 
0.000000e+00 0.000000e+00 0.000000e+00 
0.000000e+00 0.000000e+00 0.000000e+00 
0.000000e+00 0.000000e+00 0.000000e+00 
0.000000e+00 0.000000e+00 0.000000e+00 
0.000000e+00 0.000000e+00 0.000000e+00 
0.000000e+00 0.000000e+00 0.000000e+00 
0.000000e+00 0.000000e+00 0.000000e+00 
0.000000e+00 0.000000e+00 0.000000e+00 
0.000000e+00 0.000000e+00 0.000000e+00 
0.000000e+00 0.000000e+00 0.000000e+00 
0.000000e+00 0.000000e+00 0.000000e+00 
0.000000e+00 0.000000e+00 0.000000e+00 
0.000000e+00 0.000000e+00 0.000000e+00 
0.000000e+00 0.000000e+00 0.000000e+00 
0.000000e+00 0.000000e+00 0.000000e+00 
0.000000e+00 0.000000e+00 0.000000e+00 
0.000000e+00 0.000000e+00 0.000000e+00 
0.000000e+00 0.000000e+00 0.000000e+00 
0.000000e+00 0.000000e+00 0.000000e+00 
0.000000e+00 0.000000e+00 0.000000e+00 
0.000000e+00 0.000000e+00 0.000000e+00 
0.000000e+00 0.000000e+00 0.000000e+00 
0.000000e+00 0.000000e+00 0.000000e+00 
0.000000e+00 0.000000e+00 0.000000e+00 
0.000000e+00 0.000000e+00 0.000000e+00 
0.000000e+00 0.000000e+00 0.000000e+00 
0.000000e+00 0.000000e+00 0.000000e+00 
0.000000e+00 0.000000e+00 0.000000e+00 
0.000000e+00 0.000000e+00 0.000000e+00 
0.000000e+00 0.000000e+00 0.000000e+00 
0.000000e+00 0.000000e+00 0.000000e+00 
0.000000e+00 0.000000e+00 0.000000e+00 
0.000000e+00 0.000000e+00 0.000000e+00 
0.000000e+00 0.000000e+00 0.000000e+00 
0.000000e+00 0.000000e+00 0.000000e+00 
0.000000e+00 0.000000e+00 0.000000e+00 
0.000000e+00 0.000000e+00 0.000000e+00 
0.000000e+00 0.000000e+00 0.000000e+00 
0.000000e+00 0.000000e+00 0.000000e+00 
0.000000e+00 0.000000e+00 0.000000e+00 
0.000000e+00 0.000000e+00 0.000000e+00 
0.000000e+00 0.000000e+00 0.000000e+00 
0.000000e+00 0.000000e+00 0.000000e+00 
0.000000e+00 0.000000e+00 0.000000e+00 
0.000000e+00 0.000000e+00 0.000000e+00 
0.000000e+00 0.000000e+00 0.000000e+00 
0.000000e+00 0.000000e+00 0.000000e+00 
0.000000e+00 0.000000e+00 0.000000e+00 
0.000000e+00 0.000000e+00 0.000000e+00 
0.000000e+00 0.000000e+00 0.000000e+00 
0.000000e+00 0.000000e+00 0.000000e+00 
0.000000e+00 0.000000e+00 0.000000e+00 
0.000000e+00 0.000000e+00 0.000000e+00 
0.000000e+00 0.000000e+00 0.000000e+00 
0.000000e+00 0.000000e+00 0.000000e+00 
0.000000e+00 0.000000e+00 0.000000e+00 
0.000000e+00 0.000000e+00 0.000000e+00 
0.000000e+00 0.000000e+00 0.000000e+00 
0.000000e+00 0.000000e+00 0.000000e+00 
0.000000e+00 0.000000e+00 0.000000e+00 
0.000000e+00 0.000000e+00 0.000000e+00 
0.000000e+00 0.000000e+00 0.000000e+00 
0.000000e+00 0.000000e+00 0.000000e+00 
0.000000e+00 0.000000e+00 0.000000e+00 
0.000000e+00 0.000000e+00 0.000000e+00 
0.000000e+00 0.000000e+00 0.000000e+00 
0.000000e+00 0.000000e+00 0.000000e+00 
0.000000e+00 0.000000e+00 0.000000e+00 
0.000000e+00 0.000000e+00 0.000000e+00 
0.000000e+00 0.000000e+00 0.000000e+00 
0.000000e+00 0.000000e+00 0.000000e+00 
0.000000e+00 0.000000e+00 0.000000e+00 
0.000000e+00 0.000000e+00 0.000000e+00 
0.000000e+00 0.000000e+00 0.000000e+00 
0.000000e+00 0.000000e+00 0.000000e+00 
0.000000e+00 0.000000e+00 0.000000e+00 
0.000000e+00 0.000000e+00 0.000000e+00 
0.000000e+00 0.000000e+00 0.000000e+00 
0.000000e+00 0.000000e+00 0.000000e+00 
0.000000e+00 0.000000e+00 0.000000e+00 
0.000000e+00 0.000000e+00 0.000000e+00 
0.000000e+00 0.000000e+00 0.000000e+00 
0.000000e+00 0.000000e+00 0.000000e+00 
0.000000e+00 0.000000e+00 0.000000e+00 
0.000000e+00 0.000000e+00 0.000000e+00 
0.000000e+00 0.000000e+00 0.000000e+00 
0.000000e+00 0.000000e+00 0.000000e+00 
0.000000e+00 0.000000e+00 0.000000e+00 
0.000000e+00 0.000000e+00 0.000000e+00 
0.000000e+00 0.000000e+00 0.000000e+00 
0.000000e+00 0.000000e+00 0.000000e+00 
0.000000e+00 0.000000e+00 0.000000e+00 
0.000000e+00 0.000000e+00 0.000000e+00 
0.000000e+00 0.000000e+00 0.000000e+00 
0.000000e+00 0.000000e+00 0.000000e+00 
0.000000e+00 0.000000e+00 0.000000e+00 
0.000000e+00 0.000000e+00 0.000000e+00 
0.000000e+00 0.000000e+00 0.000000e+00 
0.000000e+00 0.000000e+00 0.000000e+00 
0.000000e+00 0.000000e+00 0.000000e+00 
0.000000e+00 0.000000e+00 0.000000e+00 
0.000000e+00 0.000000e+00 0.000000e+00 
0.000000e+00 0.000000e+00 0.000000e+00 
0.000000e+00 0.000000e+00 0.000000e+00 
0.000000e+00 0.000000e+00 0.000000e+00 
0.000000e+00 0.000000e+00 0.000000e+00 
0.000000e+00 0.000000e+00 0.000000e+00 
0.000000e+00 0.000000e+00 0.000000e+00 
0.000000e+00 0.000000e+00 0.000000e+00 
0.000000e+00 0.000000e+00 0.000000e+00 
0.000000e+00 0.000000e+00 0.000000e+00 
0.000000e+00 0.000000e+00 0.000000e+00 
0.000000e+00 0.000000e+00 0.000000e+00 
0.000000e+00 0.000000e+00 0.000000e+00 
0.000000e+00 0.000000e+00 0.000000e+00 
0.000000e+00 0.000000e+00 0.000000e+00 
0.000000e+00 0.000000e+00 0.000000e+00 
0.000000e+00 0.000000e+00 0.000000e+00 
0.000000e+00 0.000000e+00 0.000000e+00 
0.000000e+00 0.000000e+00 0.000000e+00 
0.000000e+00 0.000000e+00 0.000000e+00 
0.000000e+00 0.000000e+00 0.000000e+00 
0.000000e+00 0.000000e+00 0.000000e+00 
0.000000e+00 0.000000e+00 0.000000e+00 
0.000000e+00 0.000000e+00 0.000000e+00 
0.000000e+00 0.000000e+00 0.000000e+00 
0.000000e+00 0.000000e+00 0.000000e+00 
0.000000e+00 0.000000e+00 0.000000e+00 
0.000000e+00 0.000000e+00 0.000000e+00 
0.000000e+00 0.000000e+00 0.000000e+00 
0.000000e+00 0.000000e+00 0.000000e+00 
0.000000e+00 0.000000e+00 0.000000e+00 
0.000000e+00 0.000000e+00 0.000000e+00 
0.000000e+00 0.000000e+00 0.000000e+00 
0.000000e+00 0.000000e+00 0.000000e+00 
0.000000e+00 0.000000e+00 0.000000e+00 
0.000000e+00 0.000000e+00 0.000000e+00 
0.000000e+00 0.000000e+00 0.000000e+00 
0.000000e+00 0.000000e+00 0.000000e+00 
0.000000e+00 0.000000e+00 0.000000e+00 
0.000000e+00 0.000000e+00 0.000000e+00 
0.000000e+00 0.000000e+00 0.000000e+00 
0.000000e+00 0.000000e+00 0.000000e+00 
0.000000e+00 0.000000e+00 0.000000e+00 
0.000000e+00 0.000000e+00 0.000000e+00 
0.000000e+00 0.000000e+00 0.000000e+00 
0.000000e+00 0.000000e+00 0.000000e+00 
0.000000e+00 0.000000e+00 0.000000e+00 
0.000000e+00 0.000000e+00 0.000000e+00 
0.000000e+00 0.000000e+00 0.000000e+00 
0.000000e+00 0.000000e+00 0.000000e+00 
0.000000e+00 0.000000e+00 0.000000e+00 
0.000000e+00 0.000000e+00 0.000000e+00 
0.000000e+00 0.000000e+00 0.000000e+00 
0.000000e+00 0.000000e+00 0.000000e+00 
0.000000e+00 0.000000e+00 0.000000e+00 
0.000000e+00 0.000000e+00 0.000000e+00 
0.000000e+00 0.000000e+00 0.000000e+00 
0.000000e+00 0.000000e+00 0.000000e+00 
0.000000e+00 0.000000e+00 0.000000e+00 
0.000000e+00 0.000000e+00 0.000000e+00 
0.000000e+00 0.000000e+00 0.000000e+00 
0.000000e+00 0.000000e+00 0.000000e+00 
0.000000e+00 0.000000e+00 0.000000e+00 
0.000000e+00 0.000000e+00 0.000000e+00 
0.000000e+00 0.000000e+00 0.000000e+00 
0.000000e+00 0.000000e+00 0.000000e+00 
0.000000e+00 0.000000e+00 0.000000e+00 
0.000000e+00 0.000000e+00 0.000000e+00 
0.000000e+00 0.000000e+00 0.000000e+00 
0.000000e+00 0.000000e+00 0.000000e+00 
0.000000e+00 0.000000e+00 0.000000e+00 
0.000000e+00 0.000000e+00 0.000000e+00 
0.000000e+00 0.000000e+00 0.000000e+00 
0.000000e+00 0.000000e+00 0.000000e+00 
0.000000e+00 0.000000e+00 0.000000e+00 
0.000000e+00 0.000000e+00 0.000000e+00 
0.000000e+00 0.000000e+00 0.000000e+00 
0.000000e+00 0.000000e+00 0.000000e+00 
0.000000e+00 0.000000e+00 0.000000e+00 
0.000000e+00 0.000000e+00 0.000000e+00 
0.000000e+00 0.000000e+00 0.000000e+00 
0.000000e+00 0.000000e+00 0.000000e+00 
0.000000e+00 0.000000e+00 0.000000e+00 
0.000000e+00 0.000000e+00 0.000000e+00 
0.000000e+00 0.000000e+00 0.000000e+00 
0.000000e+00 0.000000e+00 0.000000e+00 
0.000000e+00 0.000000e+00 0.000000e+00 
0.000000e+00 0.000000e+00 0.000000e+00 
0.000000e+00 0.000000e+00 0.000000e+00 
0.000000e+00 0.000000e+00 0.000000e+00 
0.000000e+00 0.000000e+00 0.000000e+00 
0.000000e+00 0.000000e+00 0.000000e+00 
0.000000e+00 0.000000e+00 0.000000e+00 
0.000000e+00 0.000000e+00 0.000000e+00 
0.000000e+00 0.000000e+00 0.000000e+00 
0.000000e+00 0.000000e+00 0.000000e+00 
0.000000e+00 0.000000e+00 0.000000e+00 
0.000000e+00 0.000000e+00 0.000000e+00 
0.000000e+00 0.000000e+00 0.000000e+00 
0.000000e+00 0.000000e+00 0.000000e+00 
0.000000e+00 0.000000e+00 0.000000e+00 
0.000000e+00 0.000000e+00 0.000000e+00 
0.000000e+00 0.000000e+00 0.000000e+00 
0.000000e+00 0.000000e+00 0.000000e+00 
0.000000e+00 0.000000e+00 0.000000e+00 
0.000000e+00 0.000000e+00 0.000000e+00 
0.000000e+00 0.000000e+00 0.000000e+00 
0.000000e+00 0.000000e+00 0.000000e+00 
0.000000e+00 0.000000e+00 0.000000e+00 
0.000000e+00 0.000000e+00 0.000000e+00 
0.000000e+00 0.000000e+00 0.000000e+00 
0.000000e+00 0.000000e+00 0.000000e+00 
0.000000e+00 0.000000e+00 0.000000e+00 
0.000000e+00 0.000000e+00 0.000000e+00 
0.000000e+00 0.000000e+00 0.000000e+00 
0.000000e+00 0.000000e+00 0.000000e+00 
0.000000e+00 0.000000e+00 0.000000e+00 
0.000000e+00 0.000000e+00 0.000000e+00 
0.000000e+00 0.000000e+00 0.000000e+00 
0.000000e+00 0.000000e+00 0.000000e+00 
0.000000e+00 0.000000e+00 0.000000e+00 
0.000000e+00 0.000000e+00 0.000000e+00 
0.000000e+00 0.000000e+00 0.000000e+00 
0.000000e+00 0.000000e+00 0.000000e+00 
0.000000e+00 0.000000e+00 0.000000e+00 
0.000000e+00 0.000000e+00 0.000000e+00 
0.000000e+00 0.000000e+00 0.000000e+00 
0.000000e+00 0.000000e+00 0.000000e+00 
0.000000e+00 0.000000e+00 0.000000e+00 
0.000000e+00 0.000000e+00 0.000000e+00 
0.000000e+00 0.000000e+00 0.000000e+00 
0.000000e+00 0.000000e+00 0.000000e+00 