# vtk DataFile Version 3.1
*description-name of input file* step:1801 
ASCII
DATASET UNSTRUCTURED_GRID
POINTS 1605 FLOAT
-7.077581e-09 -5.542630e-09 -2.792469e-10
-7.795983e-09 -4.369342e-09 -6.438606e-10
-6.301813e-09 -4.834253e-09 -7.173848e-10
-7.748046e-09 -3.988774e-09 2.120271e-09
-5.545650e-09 -5.983616e-09 -1.255320e-10
1.205801e-08 7.018155e-09 -1.074046e-08
1.362142e-08 7.436174e-09 -1.081145e-08
1.289497e-08 6.047620e-09 -1.202306e-08
-6.354264e-09 -6.257307e-09 7.617843e-10
-6.392071e-09 -2.825847e-09 9.024759e-10
-4.465295e-09 -4.682202e-09 -1.055509e-09
-6.249448e-09 -2.870174e-09 -3.683678e-10
-5.662073e-09 -5.392132e-09 2.328722e-09
-5.947347e-09 -3.770672e-09 1.819306e-09
-5.140867e-09 -3.592323e-09 -1.624617e-09
-7.491993e-09 -4.364603e-09 3.179315e-09
-3.626581e-09 -5.431593e-09 7.948205e-11
-6.523074e-09 -1.146794e-09 2.051440e-10
-5.437088e-09 -1.405283e-09 -9.285536e-10
-4.045163e-09 -3.989208e-09 -3.313137e-09
-5.178673e-09 -2.795918e-09 -2.957589e-09
-4.143039e-09 -1.944852e-09 -3.796792e-09
-6.435011e-09 -2.567817e-09 2.346869e-09
-5.688020e-09 2.993240e-10 -2.381879e-09
-6.301121e-09 4.139608e-10 -8.575698e-10
-3.659072e-09 -4.695987e-09 2.015522e-09
-7.109323e-09 -1.268031e-09 1.269767e-09
-5.838263e-09 -3.496247e-09 4.162747e-09
-4.132167e-09 -2.158773e-09 -3.892745e-10
-8.008680e-09 -2.247645e-09 3.120787e-09
-2.498221e-09 -4.372778e-09 -2.230041e-09
-2.812552e-09 -3.224365e-09 -3.931352e-09
-2.319037e-09 -4.177499e-09 -3.321895e-09
-3.584250e-09 -3.475393e-09 -5.336806e-10
-6.045995e-09 -2.481551e-09 4.196575e-09
-4.100365e-09 -9.806128e-10 -2.202934e-09
-6.005311e-09 -6.833043e-10 2.192233e-09
-4.662345e-09 -2.880290e-10 4.732694e-10
-2.910092e-09 -2.017606e-09 -2.008141e-09
-3.846089e-09 -4.066894e-09 3.680953e-09
-4.785780e-09 1.114364e-11 -6.592055e-10
-3.879584e-09 4.089395e-10 -5.153928e-09
-3.968673e-09 4.158791e-10 -2.861479e-09
-4.823353e-09 9.316745e-10 -3.945920e-09
-4.317015e-09 -2.515636e-09 2.149818e-09
-1.752292e-09 -3.209441e-09 -6.850433e-10
-4.421333e-09 2.264207e-09 -4.430641e-09
-2.778263e-09 -1.532682e-09 -3.279617e-09
-3.149765e-09 4.329426e-11 -2.608956e-09
-1.440594e-09 -1.866356e-09 -3.260712e-09
-3.256149e-09 2.578086e-10 -7.406650e-10
-3.051046e-09 -1.974796e-09 1.695108e-10
-3.401629e-09 -1.662952e-10 -4.849642e-09
-1.761056e-09 -2.365292e-09 -1.741091e-09
-3.799597e-09 -4.278437e-10 8.308203e-09
-2.292909e-09 -1.555394e-09 7.569941e-09
-1.823050e-09 4.694154e-10 7.330021e-09
-1.593697e-09 5.243383e-10 -4.021803e-09
-5.781450e-09 -3.176075e-09 5.950663e-09
-4.337208e-09 2.349783e-09 -2.573661e-09
-3.601452e-09 -2.869823e-09 3.799033e-09
-4.539380e-09 -2.819928e-10 2.695724e-09
-3.963633e-09 -1.379193e-09 1.437022e-09
-5.456513e-09 2.385894e-09 -2.958874e-10
-4.955387e-09 6.752746e-10 1.090333e-09
-6.552927e-09 1.864513e-09 1.749378e-09
-4.768609e-09 -4.656220e-09 5.780101e-09
-4.644299e-09 -3.812933e-09 6.920720e-09
-6.219870e-09 -1.660655e-09 6.732514e-09
-2.083855e-09 1.792357e-09 1.941440e-09
-1.614588e-10 2.236401e-09 3.801602e-09
-1.043876e-09 1.729158e-09 6.387009e-10
-4.503324e-09 7.004495e-10 -9.862110e-10
-3.005771e-09 -4.502426e-09 5.379240e-09
9.437862e-10 4.188036e-10 3.672844e-09
7.616466e-10 1.272937e-09 4.334369e-09
-5.496411e-11 8.540737e-10 5.589406e-09
-5.598207e-09 3.294796e-09 1.269061e-09
-4.840914e-09 -1.643570e-09 5.388079e-09
-1.112105e-09 -1.460275e-10 -1.277748e-09
-4.570735e-09 -2.302014e-09 4.637565e-09
-3.452851e-09 2.048928e-10 8.190696e-10
-2.091734e-09 -5.463311e-10 1.218150e-10
-5.905304e-09 2.526120e-09 3.778985e-09
-2.314770e-09 -5.213065e-09 3.809139e-09
-3.145177e-09 2.504351e-09 -4.031708e-09
-2.170356e-09 -3.895134e-09 2.675533e-09
-5.686629e-09 -5.697757e-10 5.450008e-09
-2.726217e-09 1.726197e-09 -2.447679e-09
-4.216837e-09 -6.124767e-11 4.901121e-09
-2.858659e-09 -2.952536e-09 5.024484e-09
-5.787603e-09 -6.563151e-10 4.263380e-09
-3.300945e-09 -1.083322e-09 4.243199e-09
-4.944701e-10 -1.550085e-09 4.560875e-11
-4.453736e-09 3.471999e-09 2.330320e-09
-3.489016e-09 2.896512e-09 -8.712063e-10
-1.986844e-10 -1.526141e-09 -3.407767e-09
4.722349e-10 -2.787210e-09 -2.751353e-09
-4.013015e-09 -2.492346e-09 7.825253e-09
-5.254625e-09 -1.482780e-09 7.745082e-09
-5.397733e-09 1.979665e-10 7.800999e-09
8.423479e-10 2.331233e-09 3.189334e-09
-3.437129e-09 1.322987e-09 7.812940e-10
-3.879778e-09 2.965761e-09 3.860494e-10
-6.591088e-09 1.313656e-09 4.775220e-09
-4.368142e-09 2.148808e-11 3.572472e-09
-3.685680e-09 -2.598554e-09 6.300394e-09
-1.720154e-10 -3.385329e-11 -3.163026e-09
-1.412652e-09 -2.793102e-09 3.617300e-09
-5.061330e-09 1.330860e-09 6.841013e-09
-3.635598e-09 8.001853e-10 3.254323e-09
-4.196589e-09 2.138581e-09 5.419064e-09
-4.180339e-09 1.881544e-09 2.952636e-09
-3.240290e-10 -3.979131e-09 2.659364e-09
8.588965e-10 -3.576778e-09 4.369792e-09
-4.079418e-09 2.242359e-09 1.876649e-09
4.746434e-10 -1.804177e-09 -4.919050e-10
-4.131306e-09 2.843112e-09 3.989065e-09
1.637084e-09 -7.980424e-10 -3.259449e-09
-8.111400e-10 -3.878476e-09 6.227193e-09
-6.622968e-10 -6.860064e-10 1.214427e-09
-2.181407e-09 -3.243591e-09 6.508079e-09
-1.894892e-09 -2.382876e-09 5.569649e-09
-1.671006e-09 -3.650002e-10 2.760546e-09
-1.390430e-09 -1.799218e-09 4.404982e-09
-2.710834e-09 1.368772e-09 3.629361e-09
1.747114e-09 -9.283628e-10 -1.351174e-09
6.530323e-10 8.122661e-10 -1.356452e-09
1.450357e-09 -6.065991e-10 5.811425e-09
-3.246978e-09 1.237993e-09 6.003849e-09
9.533186e-10 7.370920e-10 -3.250533e-09
9.874073e-10 -4.581880e-09 3.121318e-09
-8.455693e-10 -7.208565e-10 4.053417e-09
9.728310e-10 -1.043151e-09 -1.684675e-10
7.184664e-10 -3.437971e-09 5.493918e-09
-3.127228e-09 9.675078e-10 7.314029e-09
-2.278033e-09 2.246720e-09 5.626446e-09
-1.201285e-09 -1.966391e-09 6.715463e-09
2.148096e-09 -4.737904e-09 3.617409e-09
1.981932e-09 -3.736020e-09 2.448447e-09
-3.539196e-10 -1.548043e-09 2.844639e-09
-2.445210e-10 -2.722614e-09 7.210293e-09
1.397398e-09 -1.641446e-09 1.744725e-09
1.983083e-09 -1.052905e-10 -2.204763e-09
-9.731591e-10 1.626385e-09 3.560255e-09
-8.334892e-10 -1.215585e-09 8.022962e-09
1.806992e-09 5.960228e-10 -1.359292e-11
2.691162e-09 -3.499646e-09 4.691594e-09
3.031845e-09 -3.934524e-09 3.511630e-09
1.844270e-09 1.435773e-09 -1.293080e-09
5.277924e-10 -2.304914e-09 6.243480e-09
-1.664785e-09 7.244444e-10 5.140368e-09
2.848080e-09 -3.036317e-10 9.814930e-10
2.436949e-09 4.176352e-10 -4.081894e-09
1.782518e-09 -2.637906e-09 4.797704e-09
3.639052e-09 -2.564640e-09 2.453919e-09
3.553349e-09 4.839682e-10 -2.153954e-09
2.701518e-09 2.371566e-09 -2.632320e-09
2.697376e-09 2.380387e-09 -4.163992e-09
3.322994e-09 1.014903e-09 -4.088037e-09
4.223424e-09 1.654189e-09 -5.414518e-09
1.100964e-09 -1.426251e-09 4.182213e-09
6.423948e-10 -6.529274e-10 7.353762e-09
2.654383e-09 -7.223256e-10 2.121969e-09
1.348144e-09 1.523708e-09 6.690475e-10
2.088209e-09 1.453388e-09 -1.124134e-10
4.569346e-09 1.694652e-09 -3.816217e-09
2.690579e-10 1.549612e-09 7.394817e-09
1.410951e-09 1.175213e-09 2.138234e-09
2.969311e-09 -2.213399e-09 3.483218e-09
2.040350e-09 -9.796835e-11 3.463155e-09
3.532101e-09 -4.533890e-10 2.107988e-09
4.496428e-09 2.736690e-09 -3.782829e-09
3.100563e-09 9.596165e-10 -8.569593e-10
3.370479e-09 1.574344e-09 -1.881483e-09
4.974275e-09 2.707969e-09 -5.122366e-09
3.355463e-09 1.041937e-09 8.435939e-10
5.187736e-09 2.040441e-09 -6.180353e-09
5.377030e-09 1.559674e-09 -4.745047e-09
3.645443e-09 -4.019109e-12 1.099022e-10
3.042137e-09 1.053252e-09 2.851539e-09
6.423041e-09 1.390946e-09 -5.841829e-09
5.977017e-09 2.745616e-09 -4.135213e-09
7.268106e-09 2.966855e-09 -6.875452e-09
6.845407e-09 2.106727e-09 -5.170710e-09
7.271009e-09 2.037897e-09 -6.397197e-09
6.206794e-09 3.621507e-09 -4.846841e-09
7.459513e-09 3.371000e-09 -5.470260e-09
8.668907e-09 2.880841e-09 -5.962774e-09
8.373797e-09 2.726330e-09 -7.107902e-09
8.584126e-09 4.108928e-09 -6.710841e-09
9.462484e-09 3.020846e-09 -6.573007e-09
1.026621e-08 4.432126e-09 -7.749325e-09
1.022669e-08 5.089265e-09 -7.748711e-09
9.509913e-09 3.851203e-09 -5.979348e-09
1.110564e-08 4.429542e-09 -6.720008e-09
1.016777e-08 4.869683e-09 -6.111817e-09
1.143528e-08 4.999111e-09 -8.627943e-09
1.133518e-08 6.566983e-09 -7.601810e-09
1.122431e-08 5.300703e-09 -6.557002e-09
1.280108e-08 4.872043e-09 -8.312463e-09
1.145838e-08 6.625253e-09 -1.014238e-08
1.175960e-08 5.917941e-09 -1.032279e-08
1.117204e-08 6.000051e-09 -9.034005e-09
1.228687e-08 5.063054e-09 -9.155849e-09
1.165556e-08 5.985482e-09 -7.108088e-09
1.290634e-08 5.489577e-09 -8.068633e-09
1.341459e-08 5.081257e-09 -9.038671e-09
1.398689e-08 5.339829e-09 -1.054806e-08
1.167384e-08 6.922904e-09 -8.853225e-09
1.426932e-08 6.869098e-09 -1.034367e-08
1.397319e-08 6.276839e-09 -8.929748e-09
1.353782e-08 7.878856e-09 -9.171137e-09
1.966239e-09 1.444580e-09 -7.027469e-10
-4.328657e-09 -3.152639e-09 7.372987e-09
7.269557e-09 2.502376e-09 -6.636325e-09
7.363809e-09 3.168927e-09 -6.172856e-09
1.247649e-08 6.532888e-09 -1.138176e-08
2.351804e-09 1.282823e-09 7.563207e-10
-4.020965e-09 1.344761e-10 -6.999353e-10
8.064210e-09 3.125920e-09 -5.716517e-09
4.557264e-10 4.483422e-10 7.374290e-09
-2.295363e-10 3.331193e-10 -1.317100e-09
-3.029929e-09 -9.871559e-10 -2.308548e-09
7.820951e-09 2.846592e-09 -6.991677e-09
-4.580280e-09 1.640729e-09 -3.259790e-09
-5.754157e-09 1.269894e-09 1.419855e-09
-1.057562e-10 1.449661e-09 3.947312e-09
1.275660e-09 -1.016425e-09 4.996819e-09
1.024645e-08 4.760695e-09 -7.749018e-09
-4.593015e-09 -3.790765e-09 -2.468877e-09
-3.979598e-09 2.604060e-09 1.131349e-09
-3.230056e-09 -2.911180e-09 4.411758e-09
-6.075567e-09 2.579655e-09 1.509219e-09
1.116498e-08 4.865122e-09 -6.638505e-09
1.070469e-10 1.201843e-09 6.492112e-09
2.405084e-10 3.892064e-10 -2.259739e-09
3.000939e-10 1.754669e-09 4.067985e-09
-4.705824e-09 -1.972792e-09 5.012822e-09
-1.653772e-09 -2.587989e-09 4.593475e-09
-4.166757e-09 3.218880e-09 1.358185e-09
-2.126573e-09 -2.545361e-09 -3.596032e-09
1.325819e-08 6.741897e-09 -1.141726e-08
[...]
POINT_DATA 1605
VECTORS vector_force float
-5.583559e+02 2.497102e+02 -7.608367e+02 
-3.654723e+02 6.445050e+02 -5.925244e+02 
-6.084657e+01 1.844895e+02 -1.198735e+03 
-1.797161e+02 1.420228e+02 -4.889244e+02 
7.451908e+02 9.995251e+02 -2.032942e+02 
-2.452948e+02 -2.352450e+02 -1.323726e+03 
-1.162218e+03 -1.862848e+02 -1.283197e+03 
3.518068e+02 -5.291481e+02 -5.849174e+02 
-5.973451e+00 -2.626957e+02 -6.297693e+02 
2.097513e+02 -5.449894e+02 -1.642875e+02 
-4.953981e+02 4.869291e+02 -4.444944e+02 
2.936466e+01 -3.138462e+02 -2.763147e+02 
5.237382e+02 -3.985894e+02 -5.463061e+02 
2.291474e+02 1.197599e+02 4.238613e+01 
2.775797e+02 5.790923e+02 -3.399071e+02 
3.279465e+02 -3.536085e+02 -4.860478e+02 
-1.550910e+02 4.147837e+02 3.076240e+01 
-5.891700e+01 -8.248099e+00 3.715748e+02 
3.225491e+02 -2.573565e+02 -1.289267e+02 
-8.532322e+02 6.945966e+02 -8.595164e+02 
1.288863e+02 1.645869e+03 -2.940152e+02 
1.202987e+02 2.224608e+03 -2.481090e+02 
-2.447296e+02 7.700531e+02 -1.301767e+02 
-6.448043e+02 8.792936e+02 4.103725e+02 
3.956593e+02 2.251933e+02 6.760692e+02 
6.995124e+00 1.876990e+02 8.858039e+01 
-1.554516e+02 -1.698555e+02 -1.239507e+03 
1.477989e+02 5.511082e+01 -3.874860e+01 
6.009851e+02 -9.318701e+02 2.004710e+01 
-1.454068e+02 -4.674046e+02 2.073042e+02 
-5.833191e+02 4.839730e+02 -1.146039e+03 
-1.234938e+03 1.278692e+03 1.350963e+02 
-1.175031e+03 1.018392e+03 -2.777314e+02 
6.020287e+00 -5.437042e+02 7.855659e+01 
5.277676e+02 -2.363152e+02 -3.880988e+01 
5.620758e+02 -2.220306e+02 -5.356874e+02 
6.525579e+00 -6.477565e+02 3.646658e+02 
-1.077576e+02 -6.724604e+02 1.402692e+02 
3.408606e+02 -1.137291e+00 3.078325e+02 
5.176513e+02 -1.035519e+02 5.259227e+01 
4.845776e+01 -4.387985e+02 -4.220155e+02 
4.456628e+01 -3.836186e+02 7.577684e+02 
1.170386e+02 -3.392637e+02 5.008354e+02 
-1.685869e+02 -3.680841e+02 8.534715e+02 
-7.488079e+02 -7.204731e+02 -1.790528e+02 
2.612144e+02 2.585178e+02 4.613771e+02 
6.102963e+02 -1.719171e+02 1.115146e+03 
3.811836e+02 -1.184057e+02 -6.671774e+01 
1.155422e+03 5.641841e+02 3.348614e+01 
-1.500456e+02 -2.149423e+02 -1.313684e+02 
1.319224e+02 -2.929262e+02 -1.982965e+02 
6.602159e+02 -3.506119e+02 5.019583e+02 
-8.430153e+02 -6.460019e+02 -6.328472e+02 
-8.833500e+01 -5.941136e+01 -2.480337e+02 
-4.528375e+02 2.655591e+02 2.928407e+02 
8.686562e+01 1.650378e+02 1.264106e+02 
2.857224e+02 4.915488e+01 -6.850939e+02 
1.635884e+02 -6.604770e+02 -3.636538e+02 
-3.894195e+02 -1.768967e+02 8.903890e+02 
-4.029107e+02 4.298823e+02 -2.937613e+02 
-3.062132e+02 2.014681e+02 5.827009e+01 
6.568864e+02 3.898763e+01 1.032076e+02 
-6.786518e+01 -4.562187e+02 8.542052e+01 
-5.469046e+02 -3.021392e+02 4.186467e+02 
-3.596380e+02 -1.038167e+03 -6.911986e+01 
1.619926e+02 -3.260001e+02 3.440467e+02 
3.572964e+02 3.192961e+01 -5.409741e+02 
1.867174e+02 -3.978266e+02 1.100542e+03 
2.182841e+02 -7.149162e+02 6.047308e+02 
1.470690e+02 7.067215e+01 -6.413276e+02 
1.347628e+02 -3.470303e+02 2.572238e+02 
4.962120e+02 -1.543261e+02 -3.425398e+02 
6.801865e+01 -8.804407e+00 -1.046057e+03 
2.186324e+02 -3.761486e+02 5.207381e+02 
-1.410207e+02 5.410358e+02 8.130384e+01 
-5.172359e+01 1.478163e+02 2.550694e+02 
3.288041e+02 8.679828e+01 -1.857575e+02 
-6.228204e+02 -1.221510e+02 5.511491e+02 
5.449214e+02 -4.960153e+02 3.122702e+02 
-8.888941e+02 -9.445731e+01 3.152163e+02 
1.261782e+02 -5.464123e+02 2.144531e+02 
5.543781e+01 -1.533675e+02 3.375756e+02 
8.166490e+01 -8.752750e+02 3.292576e+02 
4.093378e+02 -2.371806e+02 -9.649142e+01 
4.462300e+02 -2.663868e+01 1.611726e+02 
2.969020e+02 -6.491150e+02 -3.230276e+02 
2.332021e+02 -1.172203e+02 7.278925e+01 
-1.870404e+02 -7.357655e+02 -7.199965e+02 
3.298953e+02 7.197449e+02 -1.429825e+02 
-2.753928e+02 -2.616838e+01 -3.342013e+02 
4.049775e+02 3.994769e+02 -1.311034e+02 
-1.426574e+02 -8.025143e+02 -8.464400e+02 
3.995715e+02 -3.061140e+01 -2.877134e+02 
9.053027e+01 -8.916281e+01 4.527146e+02 
-2.972746e+02 -9.255824e+02 1.372208e+02 
-1.468729e+03 -3.011994e+01 -9.930213e+02 
-5.430693e+02 3.484629e+02 6.018092e+02 
-8.665291e+01 2.615507e+02 5.470603e+02 
-4.118677e+02 1.510274e+02 1.845904e+02 
5.126319e+02 1.478059e+02 5.881260e+02 
-4.189281e+02 -1.822269e+02 -2.502868e+02 
-7.568058e+02 2.161740e+02 -8.785911e+01 
2.417413e+02 -1.648522e+02 -3.411751e+02 
-1.100091e+03 9.582788e+01 -8.269002e+02 
4.693351e+02 -2.439046e+02 -4.489396e+01 
-6.288690e+02 -5.784300e+02 -7.153497e+01 
5.787849e+02 -1.944791e+02 4.159425e+02 
-4.106441e+02 -2.805271e+02 2.603508e+01 
5.196302e+02 -4.770463e+02 8.004351e+02 
-4.574599e+02 -8.354410e+02 -4.584930e+02 
-7.773701e+01 -1.929556e+02 -6.873913e+02 
2.409918e+02 2.797444e+02 -1.945500e+02 
7.760501e+02 -1.155341e+00 3.755206e+02 
-1.865835e+02 4.009404e+02 -5.446833e+02 
-2.576890e+01 -5.087004e+02 -6.619901e+01 
3.059549e+02 -7.707168e+01 3.765575e+02 
1.281477e+02 -2.997679e+02 -3.136864e+02 
4.267109e+02 2.817622e+02 -7.753849e+02 
-1.272648e+03 -4.831125e+02 1.059663e+02 
-1.302276e+02 -1.166076e+02 -2.082315e+02 
4.974561e+02 2.413648e+02 9.198592e+01 
1.000238e+02 -2.748748e+02 9.891392e+02 
2.807986e+02 -1.431518e+02 1.376559e+02 
-4.304503e+02 1.067463e+02 -4.327924e+02 
7.577647e+02 -7.052178e+01 3.680553e+02 
5.959691e+02 -5.817507e+02 -2.086339e+02 
-3.214089e+01 -1.012293e+02 2.014794e+02 
-4.670480e+02 3.742909e+02 2.014682e+02 
-4.460208e+02 -1.068851e+02 -9.124461e+02 
-3.935426e+02 -4.805837e+02 5.274467e+01 
-4.079969e+02 3.576423e+02 2.054747e+02 
8.491560e+02 2.592729e+02 -4.318642e+02 
1.966059e+02 -2.362289e+02 5.150043e+01 
3.525854e+02 -2.280140e+02 -3.902122e+02 
-3.929663e+02 2.380523e+02 -2.061430e+02 
-8.692454e+02 -1.449583e+02 2.107702e+02 
6.079998e+02 -3.813992e+02 6.448849e+00 
-5.358095e+02 2.163390e+02 -2.712734e+01 
-2.247052e+02 9.728072e+01 -5.445579e+02 
3.147015e+02 1.001773e+02 -5.352252e+02 
6.948685e+02 1.386135e+01 -2.274079e+02 
-6.416400e+02 5.022234e+02 1.808867e+02 
3.078522e+02 2.335021e+02 -2.995974e+02 
-5.637311e+02 2.307580e+02 -2.037343e+02 
5.147046e+02 6.608212e+01 1.668621e+02 
-7.635937e+02 3.161356e+02 -2.951190e+02 
-3.954851e+02 -1.802466e+02 1.898896e+02 
-9.713644e+01 -4.440498e+02 -3.708350e+02 
-3.927785e+02 3.171110e+02 2.972439e+02 
2.293130e+02 1.718432e+02 -6.964972e+02 
-8.501559e+02 -4.700881e+02 -9.407558e+01 
6.228541e+01 -5.071773e+02 -4.867373e+02 
8.518251e+02 4.948538e+01 9.895731e+02 
-1.036639e+03 6.861343e+01 -9.547484e+02 
-5.604976e+02 -4.331121e+02 1.915805e+02 
1.034300e+03 -3.201909e+02 7.096989e+02 
-1.583902e+02 -5.807965e+02 -8.057565e+02 
-1.251393e+02 -1.580065e+02 -7.565221e+02 
2.633247e+02 -2.687392e+02 -5.580733e+02 
-1.683835e+02 -1.103216e+02 -9.589536e+02 
-3.001117e+02 7.460536e+01 -4.497406e+02 
4.554131e+02 -2.136306e+02 -3.696233e+01 
8.833254e+01 -2.508528e+02 -6.134332e+01 
-2.280159e+02 -1.040266e+02 -1.720650e+02 
-1.027254e+02 3.539142e+02 -6.480352e+02 
5.286681e+01 1.958141e+01 7.606291e+00 
4.305692e+02 8.245049e+01 -3.676370e+01 
1.110104e+03 4.561818e+02 -1.513358e+03 
-7.735797e+02 2.094045e+02 -2.200973e+02 
4.402282e+02 -1.038802e+02 -1.158506e+02 
-5.618600e+02 8.796282e+02 -3.701814e+02 
2.756420e+02 -4.503757e+02 -2.700564e+02 
6.130729e+02 -5.176807e+00 -3.306290e+02 
-8.259257e+02 -3.269030e+02 -1.036933e+03 
5.970057e+01 -1.913743e+02 -3.728979e+02 
-2.925002e+02 3.137392e+02 2.902331e+02 
1.163165e+03 -1.793007e+01 -2.699846e+02 
-4.652399e+01 2.754225e+02 -7.218938e+02 
-2.950847e+02 1.562602e+02 -2.666965e+02 
-1.844796e+03 -1.960939e+02 -5.164588e+02 
-5.009050e+01 -8.560743e+02 -6.105215e+02 
-8.005351e+02 -3.795027e+02 -5.249010e+01 
6.012826e+02 3.965140e+02 3.012210e+02 
5.586964e+02 -1.608982e+01 1.944022e+02 
3.761319e+02 -5.040644e+02 -7.834746e+02 
-4.203442e+02 1.198861e+03 6.962970e+02 
1.464664e+03 1.036019e+03 1.577569e+02 
1.018512e+03 1.075224e+01 -2.960459e+02 
-5.843420e+01 2.362144e+02 -4.550783e+02 
5.976732e+02 -5.382665e+02 5.450245e+02 
4.657947e+02 -8.067984e+02 -7.887715e+02 
7.840019e+02 -7.122824e+02 1.732632e+02 
7.504776e+02 -5.646419e+02 1.314155e+02 
-3.203513e+02 -8.418143e+02 -3.131444e+02 
5.100201e+02 -6.046875e+02 1.874853e+02 
-3.450196e+02 -3.676218e+02 6.789204e+02 
4.189142e+02 -5.558902e+01 2.569006e+01 
-3.613061e+02 -1.834339e+02 -1.756782e+02 
1.157433e+03 1.783953e+02 3.797515e+02 
1.914922e+02 -2.400677e+02 6.434699e+02 
3.342971e+02 5.668256e+02 7.940311e+02 
1.797965e+02 3.626331e+02 -1.389441e+03 
7.106487e+02 2.270973e+02 4.682249e+02 
8.714152e+02 3.450560e+02 -3.877025e+02 
1.110619e+03 -4.089548e+02 7.259828e+02 
1.632094e+03 -6.982157e+01 -9.724863e+01 
-5.760773e+01 3.075305e+02 3.038163e+02 
1.508898e+03 3.971186e+02 6.754652e+02 
-4.170395e+02 -3.105233e+02 6.646587e+02 
1.684975e+02 8.191623e+01 1.967589e+02 
-1.075489e+03 2.168043e+02 -3.902904e+02 
3.594817e+02 3.933915e+02 -3.242867e+02 
-6.518950e+02 4.960808e+02 -1.911412e+02 
0.000000e+00 0.000000e+00 0.000000e+00 
0.000000e+00 0.000000e+00 0.000000e+00 
0.000000e+00 0.000000e+00 0.000000e+00 
0.000000e+00 0.000000e+00 0.000000e+00 
0.000000e+00 0.000000e+00 0.000000e+00 
0.000000e+00 0.000000e+00 0.000000e+00 
0.000000e+00 0.000000e+00 0.000000e+00 
0.000000e+00 0.000000e+00 0.000000e+00 
0.000000e+00 0.000000e+00 0.000000e+00 
0.000000e+00 0.000000e+00 0.000000e+00 
0.000000e+00 0.000000e+00 0.000000e+00 
0.000000e+00 0.000000e+00 0.000000e+00 
0.000000e+00 0.000000e+00 0.000000e+00 
0.000000e+00 0.000000e+00 0.000000e+00 
0.000000e+00 0.000000e+00 0.000000e+00 
0.000000e+00 0.000000e+00 0.000000e+00 
0.000000e+00 0.000000e+00 0.000000e+00 
0.000000e+00 0.000000e+00 0.000000e+00 
0.000000e+00 0.000000e+00 0.000000e+00 
0.000000e+00 0.000000e+00 0.000000e+00 
0.000000e+00 0.000000e+00 0.000000e+00 
0.000000e+00 0.000000e+00 0.000000e+00 
0.000000e+00 0.000000e+00 0.000000e+00 
0.000000e+00 0.000000e+00 0.000000e+00 
0.000000e+00 0.000000e+00 0.000000e+00 
0.000000e+00 0.000000e+00 0.000000e+00 
0.000000e+00 0.000000e+00 0.000000e+00 
0.000000e+00 0.000000e+00 0.000000e+00 
0.000000e+00 0.000000e+00 0.000000e+00 
0.000000e+00 0.000000e+00 0.000000e+00 
0.000000e+00 0.000000e+00 0.000000e+00 
0.000000e+00 0.000000e+00 0.000000e+00 
0.000000e+00 0.000000e+00 0.000000e+00 
0.000000e+00 0.000000e+00 0.000000e+00 
0.000000e+00 0.000000e+00 0.000000e+00 
0.000000e+00 0.000000e+00 0.000000e+00 
0.000000e+00 0.000000e+00 0.000000e+00 
0.000000e+00 0.000000e+00 0.000000e+00 
0.000000e+00 0.000000e+00 0.000000e+00 
0.000000e+00 0.000000e+00 0.000000e+00 
0.000000e+00 0.000000e+00 0.000000e+00 
0.000000e+00 0.000000e+00 0.000000e+00 
0.000000e+00 0.000000e+00 0.000000e+00 
0.000000e+00 0.000000e+00 0.000000e+00 
0.000000e+00 0.000000e+00 0.000000e+00 
0.000000e+00 0.000000e+00 0.000000e+00 
0.000000e+00 0.000000e+00 0.000000e+00 
0.000000e+00 0.000000e+00 0.000000e+00 
0.000000e+00 0.000000e+00 0.000000e+00 
0.000000e+00 0.000000e+00 0.000000e+00 
0.000000e+00 0.000000e+00 0.000000e+00 
0.000000e+00 0.000000e+00 0.000000e+00 
0.000000e+00 0.000000e+00 0.000000e+00 
0.000000e+00 0.000000e+00 0.000000e+00 
0.000000e+00 0.000000e+00 0.000000e+00 
0.000000e+00 0.000000e+00 0.000000e+00 
0.000000e+00 0.000000e+00 0.000000e+00 
0.000000e+00 0.000000e+00 0.000000e+00 
0.000000e+00 0.000000e+00 0.000000e+00 
0.000000e+00 0.000000e+00 0.000000e+00 
0.000000e+00 0.000000e+00 0.000000e+00 
0.000000e+00 0.000000e+00 0.000000e+00 
0.000000e+00 0.000000e+00 0.000000e+00 
0.000000e+00 0.000000e+00 0.000000e+00 
0.000000e+00 0.000000e+00 0.000000e+00 
0.000000e+00 0.000000e+00 0.000000e+00 
0.000000e+00 0.000000e+00 0.000000e+00 
0.000000e+00 0.000000e+00 0.000000e+00 
0.000000e+00 0.000000e+00 0.000000e+00 
0.000000e+00 0.000000e+00 0.000000e+00 
0.000000e+00 0.000000e+00 0.000000e+00 
0.000000e+00 0.000000e+00 0.000000e+00 
0.000000e+00 0.000000e+00 0.000000e+00 
0.000000e+00 0.000000e+00 0.000000e+00 
0.000000e+00 0.000000e+00 0.000000e+00 
0.000000e+00 0.000000e+00 0.000000e+00 
0.000000e+00 0.000000e+00 0.000000e+00 
0.000000e+00 0.000000e+00 0.000000e+00 
0.000000e+00 0.000000e+00 0.000000e+00 
0.000000e+00 0.000000e+00 0.000000e+00 
0.000000e+00 0.000000e+00 0.000000e+00 
0.000000e+00 0.000000e+00 0.000000e+00 
0.000000e+00 0.000000e+00 0.000000e+00 
0.000000e+00 0.000000e+00 0.000000e+00 
0.000000e+00 0.000000e+00 0.000000e+00 
0.000000e+00 0.000000e+00 0.000000e+00 
0.000000e+00 0.000000e+00 0.000000e+00 
0.000000e+00 0.000000e+00 0.000000e+00 
0.000000e+00 0.000000e+00 0.000000e+00 
0.000000e+00 0.000000e+00 0.000000e+00 
0.000000e+00 0.000000e+00 0.000000e+00 
0.000000e+00 0.000000e+00 0.000000e+00 
0.000000e+00 0.000000e+00 0.000000e+00 
0.000000e+00 0.000000e+00 0.000000e+00 
0.000000e+00 0.000000e+00 0.000000e+00 
0.000000e+00 0.000000e+00 0.000000e+00 
0.000000e+00 0.000000e+00 0.000000e+00 
0.000000e+00 0.000000e+00 0.000000e+00 
0.000000e+00 0.000000e+00 0.000000e+00 
0.000000e+00 0.000000e+00 0.000000e+00 
0.000000e+00 0.000000e+00 0.000000e+00 
0.000000e+00 0.000000e+00 0.000000e+00 
0.000000e+00 0.000000e+00 0.000000e+00 
0.000000e+00 0.000000e+00 0.000000e+00 
0.000000e+00 0.000000e+00 0.000000e+00 
0.000000e+00 0.000000e+00 0.000000e+00 
0.000000e+00 0.000000e+00 0.000000e+00 
0.000000e+00 0.000000e+00 0.000000e+00 
0.000000e+00 0.000000e+00 0.000000e+00 
0.000000e+00 0.000000e+00 0.000000e+00 
0.000000e+00 0.000000e+00 0.000000e+00 
0.000000e+00 0.000000e+00 0.000000e+00 
0.000000e+00 0.000000e+00 0.000000e+00 
0.000000e+00 0.000000e+00 0.000000e+00 
0.000000e+00 0.000000e+00 0.000000e+00 
0.000000e+00 0.000000e+00 0.000000e+00 
0.000000e+00 0.000000e+00 0.000000e+00 
0.000000e+00 0.000000e+00 0.000000e+00 
0.000000e+00 0.000000e+00 0.000000e+00 
0.000000e+00 0.000000e+00 0.000000e+00 
0.000000e+00 0.000000e+00 0.000000e+00 
0.000000e+00 0.000000e+00 0.000000e+00 
0.000000e+00 0.000000e+00 0.000000e+00 
0.000000e+00 0.000000e+00 0.000000e+00 
0.000000e+00 0.000000e+00 0.000000e+00 
0.000000e+00 0.000000e+00 0.000000e+00 
0.000000e+00 0.000000e+00 0.000000e+00 
0.000000e+00 0.000000e+00 0.000000e+00 
0.000000e+00 0.000000e+00 0.000000e+00 
0.000000e+00 0.000000e+00 0.000000e+00 
0.000000e+00 0.000000e+00 0.000000e+00 
0.000000e+00 0.000000e+00 0.000000e+00 
0.000000e+00 0.000000e+00 0.000000e+00 
0.000000e+00 0.000000e+00 0.000000e+00 
0.000000e+00 0.000000e+00 0.000000e+00 
0.000000e+00 0.000000e+00 0.000000e+00 
0.000000e+00 0.000000e+00 0.000000e+00 
0.000000e+00 0.000000e+00 0.000000e+00 
0.000000e+00 0.000000e+00 0.000000e+00 
0.000000e+00 0.000000e+00 0.000000e+00 
0.000000e+00 0.000000e+00 0.000000e+00 
0.000000e+00 0.000000e+00 0.000000e+00 
0.000000e+00 0.000000e+00 0.000000e+00 
0.000000e+00 0.000000e+00 0.000000e+00 
0.000000e+00 0.000000e+00 0.000000e+00 
0.000000e+00 0.000000e+00 0.000000e+00 
0.000000e+00 0.000000e+00 0.000000e+00 
0.000000e+00 0.000000e+00 0.000000e+00 
0.000000e+00 0.000000e+00 0.000000e+00 
0.000000e+00 0.000000e+00 0.000000e+00 
0.000000e+00 0.000000e+00 0.000000e+00 
0.000000e+00 0.000000e+00 0.000000e+00 
0.000000e+00 0.000000e+00 0.000000e+00 
0.000000e+00 0.000000e+00 0.000000e+00 
0.000000e+00 0.000000e+00 0.000000e+00 
0.000000e+00 0.000000e+00 0.000000e+00 
0.000000e+00 0.000000e+00 0.000000e+00 
0.000000e+00 0.000000e+00 0.000000e+00 
0.000000e+00 0.000000e+00 0.000000e+00 
0.000000e+00 0.000000e+00 0.000000e+00 
0.000000e+00 0.000000e+00 0.000000e+00 
0.000000e+00 0.000000e+00 0.000000e+00 
0.000000e+00 0.000000e+00 0.000000e+00 
0.000000e+00 0.000000e+00 0.000000e+00 
0.000000e+00 0.000000e+00 0.000000e+00 
0.000000e+00 0.000000e+00 0.000000e+00 
0.000000e+00 0.000000e+00 0.000000e+00 
0.000000e+00 0.000000e+00 0.000000e+00 
0.000000e+00 0.000000e+00 0.000000e+00 
0.000000e+00 0.000000e+00 0.000000e+00 
0.000000e+00 0.000000e+00 0.000000e+00 
0.000000e+00 0.000000e+00 0.000000e+00 
0.000000e+00 0.000000e+00 0.000000e+00 
0.000000e+00 0.000000e+00 0.000000e+00 
0.000000e+00 0.000000e+00 0.000000e+00 
0.000000e+00 0.000000e+00 0.000000e+00 
0.000000e+00 0.000000e+00 0.000000e+00 
0.000000e+00 0.000000e+00 0.000000e+00 
0.000000e+00 0.000000e+00 0.000000e+00 
0.000000e+00 0.000000e+00 0.000000e+00 
0.000000e+00 0.000000e+00 0.000000e+00 
0.000000e+00 0.000000e+00 0.000000e+00 
0.000000e+00 0.000000e+00 0.000000e+00 
0.000000e+00 0.000000e+00 0.000000e+00 
0.000000e+00 0.000000e+00 0.000000e+00 
0.000000e+00 0.000000e+00 0.000000e+00 
0.000000e+00 0.000000e+00 0.000000e+00 
0.000000e+00 0.000000e+00 0.000000e+00 
0.000000e+00 0.000000e+00 0.000000e+00 
0.000000e+00 0.000000e+00 0.000000e+00 
0.000000e+00 0.000000e+00 0.000000e+00 
0.000000e+00 0.000000e+00 0.000000e+00 
0.000000e+00 0.000000e+00 0.000000e+00 
0.000000e+00 0.000000e+00 0.000000e+00 
0.000000e+00 0.000000e+00 0.000000e+00 
0.000000e+00 0.000000e+00 0.000000e+00 
0.000000e+00 0.000000e+00 0.000000e+00 
0.000000e+00 0.000000e+00 0.000000e+00 
0.000000e+00 0.000000e+00 0.000000e+00 
0.000000e+00 0.000000e+00 0.000000e+00 
0.000000e+00 0.000000e+00 0.000000e+00 
0.000000e+00 0.000000e+00 0.000000e+00 
0.000000e+00 0.000000e+00 0.000000e+00 
0.000000e+00 0.000000e+00 0.000000e+00 
0.000000e+00 0.000000e+00 0.000000e+00 
0.000000e+00 0.000000e+00 0.000000e+00 
0.000000e+00 0.000000e+00 0.000000e+00 
0.000000e+00 0.000000e+00 0.000000e+00 
0.000000e+00 0.000000e+00 0.000000e+00 
0.000000e+00 0.000000e+00 0.000000e+00 
0.000000e+00 0.000000e+00 0.000000e+00 
0.000000e+00 0.000000e+00 0.000000e+00 
0.000000e+00 0.000000e+00 0.000000e+00 
0.000000e+00 0.000000e+00 0.000000e+00 
0.000000e+00 0.000000e+00 0.000000e+00 
0.000000e+00 0.000000e+00 0.000000e+00 
0.000000e+00 0.000000e+00 0.000000e+00 
0.000000e+00 0.000000e+00 0.000000e+00 
0.000000e+00 0.000000e+00 0.000000e+00 
0.000000e+00 0.000000e+00 0.000000e+00 
0.000000e+00 0.000000e+00 0.000000e+00 
0.000000e+00 0.000000e+00 0.000000e+00 
0.000000e+00 0.000000e+00 0.000000e+00 
0.000000e+00 0.000000e+00 0.000000e+00 
0.000000e+00 0.000000e+00 0.000000e+00 
0.000000e+00 0.000000e+00 0.000000e+00 
0.000000e+00 0.000000e+00 0.000000e+00 
0.000000e+00 0.000000e+00 0.000000e+00 
0.000000e+00 0.000000e+00 0.000000e+00 
0.000000e+00 0.000000e+00 0.000000e+00 
0.000000e+00 0.000000e+00 0.000000e+00 
0.000000e+00 0.000000e+00 0.000000e+00 
0.000000e+00 0.000000e+00 0.000000e+00 
0.000000e+00 0.000000e+00 0.000000e+00 
0.000000e+00 0.000000e+00 0.000000e+00 
0.000000e+00 0.000000e+00 0.000000e+00 
0.000000e+00 0.000000e+00 0.000000e+00 
0.000000e+00 0.000000e+00 0.000000e+00 
0.000000e+00 0.000000e+00 0.000000e+00 
0.000000e+00 0.000000e+00 0.000000e+00 
0.000000e+00 0.000000e+00 0.000000e+00 
0.000000e+00 0.000000e+00 0.000000e+00 
0.000000e+00 0.000000e+00 0.000000e+00 
0.000000e+00 0.000000e+00 0.000000e+00 
0.000000e+00 0.000000e+00 0.000000e+00 
0.000000e+00 0.000000e+00 0.000000e+00 
0.000000e+00 0.000000e+00 0.000000e+00 
0.000000e+00 0.000000e+00 0.000000e+00 
0.000000e+00 0.000000e+00 0.000000e+00 
0.000000e+00 0.000000e+00 0.000000e+00 
0.000000e+00 0.000000e+00 0.000000e+00 
0.000000e+00 0.000000e+00 0.000000e+00 
0.000000e+00 0.000000e+00 0.000000e+00 
0.000000e+00 0.000000e+00 0.000000e+00 
0.000000e+00 0.000000e+00 0.000000e+00 
0.000000e+00 0.000000e+00 0.000000e+00 
0.000000e+00 0.000000e+00 0.000000e+00 
0.000000e+00 0.000000e+00 0.000000e+00 
0.000000e+00 0.000000e+00 0.000000e+00 
0.000000e+00 0.000000e+00 0.000000e+00 
0.000000e+00 0.000000e+00 0.000000e+00 
0.000000e+00 0.000000e+00 0.000000e+00 
0.000000e+00 0.000000e+00 0.000000e+00 
0.000000e+00 0.000000e+00 0.000000e+00 
0.000000e+00 0.000000e+00 0.000000e+00 
0.000000e+00 0.000000e+00 0.000000e+00 
0.000000e+00 0.000000e+00 0.000000e+00 
0.000000e+00 0.000000e+00 0.000000e+00 
0.000000e+00 0.000000e+00 0.000000e+00 
0.000000e+00 0.000000e+00 0.000000e+00 
0.000000e+00 0.000000e+00 0.000000e+00 
0.000000e+00 0.000000e+00 0.000000e+00 
0.000000e+00 0.000000e+00 0.000000e+00 
0.000000e+00 0.000000e+00 0.000000e+00 
0.000000e+00 0.000000e+00 0.000000e+00 
0.000000e+00 0.000000e+00 0.000000e+00 
0.000000e+00 0.000000e+00 0.000000e+00 