# vtk DataFile Version 3.1
*description-name of input file* step:501 
ASCII
DATASET UNSTRUCTURED_GRID
POINTS 1605 FLOAT
-7.015103e-09 -5.883721e-09 1.974957e-10
-7.552023e-09 -4.685187e-09 -5.945347e-10
-6.267446e-09 -5.119825e-09 -7.343034e-10
-7.650910e-09 -4.193321e-09 1.953962e-09
-5.361567e-09 -5.983579e-09 -1.259865e-10
1.216780e-08 7.102484e-09 -1.067963e-08
1.379302e-08 7.330843e-09 -1.068303e-08
1.283946e-08 5.976469e-09 -1.181006e-08
-5.876891e-09 -6.201192e-09 1.021439e-09
-6.146933e-09 -3.135905e-09 8.522310e-10
-4.257212e-09 -4.503812e-09 -1.152246e-09
-6.303570e-09 -2.953936e-09 -6.066922e-10
-5.498822e-09 -5.350694e-09 2.463597e-09
-5.881197e-09 -3.680439e-09 1.883252e-09
-5.195233e-09 -3.726590e-09 -1.446366e-09
-7.193945e-09 -4.091482e-09 3.238852e-09
-3.334336e-09 -5.407306e-09 1.598840e-10
-6.730085e-09 -1.424685e-09 7.433311e-11
-5.486044e-09 -1.599640e-09 -1.124693e-09
-3.898767e-09 -4.064999e-09 -3.584670e-09
-5.264740e-09 -2.804141e-09 -2.858903e-09
-4.201894e-09 -2.122968e-09 -3.842492e-09
-6.343076e-09 -2.556271e-09 2.449101e-09
-6.018845e-09 2.550067e-10 -2.383854e-09
-6.442634e-09 -7.031210e-11 -9.371261e-10
-3.660483e-09 -4.698702e-09 1.821131e-09
-7.203904e-09 -1.723143e-09 1.375866e-09
-5.878741e-09 -3.787561e-09 4.262267e-09
-4.212581e-09 -2.022991e-09 -4.107539e-10
-7.621192e-09 -2.075555e-09 3.426934e-09
-2.283941e-09 -4.567286e-09 -2.377670e-09
-2.719551e-09 -2.810637e-09 -3.674216e-09
-2.120826e-09 -4.001480e-09 -3.425167e-09
-3.461107e-09 -3.457378e-09 -5.887351e-10
-6.090562e-09 -2.495672e-09 4.342264e-09
-4.326162e-09 -8.447092e-10 -2.372133e-09
-6.410043e-09 -5.847897e-10 2.025164e-09
-4.865792e-09 -4.648218e-10 3.354322e-10
-3.153574e-09 -1.856057e-09 -2.021594e-09
-4.112130e-09 -3.993542e-09 3.850959e-09
-5.006025e-09 3.219880e-10 -8.213605e-10
-3.899491e-09 9.971115e-10 -4.786247e-09
-3.916270e-09 2.893130e-10 -2.966325e-09
-4.767528e-09 1.113264e-09 -3.336772e-09
-4.098980e-09 -2.674786e-09 2.071544e-09
-1.555925e-09 -3.051556e-09 -6.471167e-10
-4.522188e-09 2.633317e-09 -3.754247e-09
-3.087314e-09 -1.574487e-09 -3.471087e-09
-3.357030e-09 -9.175628e-11 -2.914213e-09
-1.761695e-09 -1.445914e-09 -3.578248e-09
-3.561906e-09 4.676711e-10 -8.605760e-10
-3.019467e-09 -2.010033e-09 1.085768e-10
-3.132710e-09 2.099467e-10 -4.653940e-09
-1.796833e-09 -2.188264e-09 -1.875460e-09
-4.002846e-09 -2.655293e-10 8.053213e-09
-2.211056e-09 -1.681941e-09 7.496631e-09
-1.940989e-09 1.360492e-10 7.350625e-09
-1.491227e-09 7.365351e-10 -4.155223e-09
-5.863953e-09 -2.996187e-09 5.971369e-09
-4.190505e-09 2.345502e-09 -2.300403e-09
-3.600522e-09 -2.747038e-09 3.668163e-09
-4.495256e-09 -6.389493e-10 2.442590e-09
-3.959162e-09 -1.548083e-09 1.140922e-09
-5.486037e-09 2.298470e-09 -2.219919e-10
-4.802896e-09 7.512638e-10 1.349069e-09
-6.543006e-09 1.820569e-09 1.715636e-09
-4.640349e-09 -4.437876e-09 5.860549e-09
-4.830980e-09 -3.623116e-09 6.863477e-09
-6.076853e-09 -1.695668e-09 6.776095e-09
-1.928176e-09 1.800527e-09 2.005046e-09
1.420341e-10 2.306348e-09 3.714216e-09
-1.026565e-09 1.733792e-09 7.539421e-10
-4.553197e-09 7.215811e-10 -1.199494e-09
-3.112823e-09 -4.440978e-09 5.425486e-09
1.109928e-09 2.320222e-10 3.730095e-09
8.223439e-10 9.830278e-10 4.130472e-09
-4.185475e-11 6.640916e-10 5.481988e-09
-5.337223e-09 3.308727e-09 9.639154e-10
-4.859236e-09 -1.622059e-09 5.504869e-09
-1.106972e-09 4.887573e-11 -1.472740e-09
-4.573101e-09 -2.281001e-09 4.587440e-09
-3.323151e-09 -2.783104e-11 4.766318e-10
-2.218627e-09 -4.816797e-10 -3.122972e-11
-5.776625e-09 2.639532e-09 3.911806e-09
-2.392357e-09 -5.150126e-09 3.654135e-09
-2.901971e-09 2.762984e-09 -3.232553e-09
-2.095749e-09 -3.726279e-09 2.640017e-09
-5.840077e-09 -4.231857e-10 5.398754e-09
-2.555084e-09 1.767349e-09 -2.130770e-09
-4.449594e-09 -8.277732e-11 4.707084e-09
-2.785077e-09 -2.879098e-09 4.833184e-09
-5.834659e-09 -5.523605e-10 4.037184e-09
-3.326227e-09 -9.778764e-10 4.210371e-09
-7.318486e-10 -1.411668e-09 8.876592e-11
-4.293783e-09 3.501034e-09 2.318331e-09
-3.157851e-09 2.901299e-09 -8.147863e-10
-3.825728e-10 -1.489338e-09 -3.260374e-09
2.479811e-10 -2.867051e-09 -2.716923e-09
-4.042284e-09 -2.430186e-09 7.886555e-09
-5.468615e-09 -1.417248e-09 7.949964e-09
-5.449380e-09 2.954042e-10 7.726159e-09
1.020753e-09 2.103554e-09 2.945588e-09
-3.546037e-09 1.272498e-09 7.906504e-10
-3.466699e-09 2.816150e-09 5.571487e-10
-6.426990e-09 1.449246e-09 4.998320e-09
-4.802611e-09 1.941825e-10 3.728855e-09
-3.702746e-09 -2.585857e-09 6.188498e-09
3.404284e-11 -7.281445e-12 -3.163465e-09
-1.375510e-09 -2.769331e-09 3.675934e-09
-4.895823e-09 1.311279e-09 6.702539e-09
-3.499726e-09 7.726184e-10 3.337060e-09
-4.396484e-09 2.159691e-09 5.436274e-09
-4.308251e-09 1.677343e-09 3.046714e-09
-3.281192e-10 -3.895111e-09 2.592605e-09
7.753622e-10 -3.719295e-09 4.133422e-09
-4.020236e-09 2.373576e-09 1.784570e-09
3.106483e-10 -2.024671e-09 -6.897937e-10
-3.972199e-09 2.844998e-09 3.961079e-09
1.232655e-09 -1.192104e-09 -2.888166e-09
-6.836298e-10 -4.006437e-09 6.179707e-09
-6.988228e-10 -6.141538e-10 1.195635e-09
-2.312322e-09 -3.327355e-09 6.629600e-09
-1.932680e-09 -2.189806e-09 5.490618e-09
-1.507237e-09 -2.927448e-10 2.853454e-09
-1.448015e-09 -1.686514e-09 4.293458e-09
-2.512724e-09 1.325829e-09 3.671421e-09
1.511728e-09 -9.247183e-10 -1.373336e-09
5.109849e-10 8.605582e-10 -1.309624e-09
1.442369e-09 -5.219916e-10 5.912930e-09
-3.302074e-09 1.106732e-09 5.896772e-09
9.186625e-10 8.023074e-10 -2.966470e-09
8.448224e-10 -4.529787e-09 2.815131e-09
-8.584901e-10 -6.492505e-10 4.012197e-09
8.697429e-10 -1.205646e-09 -2.010067e-10
5.365324e-10 -3.784124e-09 5.361115e-09
-3.211649e-09 7.759856e-10 7.230708e-09
-2.604402e-09 2.134120e-09 5.442041e-09
-1.290360e-09 -1.797576e-09 6.465893e-09
1.917276e-09 -4.629153e-09 3.806633e-09
1.971808e-09 -3.590517e-09 2.306868e-09
-1.772666e-10 -1.460110e-09 2.683459e-09
-3.598002e-10 -2.803746e-09 6.879203e-09
1.429913e-09 -1.582295e-09 1.674820e-09
1.985553e-09 -8.510331e-11 -2.173919e-09
-8.913156e-10 1.582411e-09 3.577611e-09
-7.454447e-10 -1.411928e-09 7.872708e-09
1.584845e-09 3.457591e-10 -5.596305e-11
2.301181e-09 -3.452654e-09 4.712681e-09
2.863862e-09 -3.951649e-09 3.833108e-09
1.813925e-09 1.523521e-09 -1.196110e-09
4.806852e-10 -2.279907e-09 6.106411e-09
-1.816216e-09 6.024794e-10 5.159889e-09
2.947844e-09 -3.097870e-10 7.148587e-10
2.717938e-09 3.388166e-10 -3.832214e-09
1.681924e-09 -2.683949e-09 4.893378e-09
3.573334e-09 -2.829257e-09 2.566696e-09
3.319312e-09 7.969574e-10 -2.122215e-09
2.705345e-09 2.542490e-09 -2.526761e-09
2.837923e-09 2.020536e-09 -4.130567e-09
3.739242e-09 8.100530e-10 -3.926432e-09
4.079101e-09 1.436368e-09 -5.122279e-09
1.367886e-09 -1.383662e-09 4.267010e-09
5.752899e-10 -9.061379e-10 7.358983e-09
2.602603e-09 -5.989069e-10 2.085943e-09
1.066573e-09 1.460637e-09 5.224713e-10
2.179839e-09 1.681759e-09 -2.097626e-10
4.607940e-09 1.368339e-09 -3.484146e-09
1.478075e-10 1.244186e-09 7.227214e-09
1.376331e-09 1.089268e-09 1.998710e-09
2.802727e-09 -2.298619e-09 3.498640e-09
2.283073e-09 -3.951498e-10 3.405539e-09
3.628798e-09 -7.680082e-11 1.986515e-09
4.560225e-09 2.497549e-09 -3.562744e-09
3.032564e-09 8.722025e-10 -7.579857e-10
3.240460e-09 1.981318e-09 -1.674445e-09
4.825097e-09 2.374057e-09 -5.026086e-09
3.344081e-09 8.478984e-10 6.916768e-10
5.342553e-09 1.724366e-09 -6.105873e-09
5.388971e-09 1.480739e-09 -4.731210e-09
3.455800e-09 -8.787937e-11 -2.314623e-10
3.161393e-09 8.592845e-10 2.535389e-09
6.218439e-09 1.479921e-09 -5.961281e-09
5.813307e-09 2.819482e-09 -3.934728e-09
7.056125e-09 2.999560e-09 -6.642382e-09
6.759223e-09 2.196140e-09 -4.792155e-09
7.153963e-09 2.131485e-09 -6.520328e-09
6.217125e-09 3.508772e-09 -4.836731e-09
7.462840e-09 3.599786e-09 -5.638515e-09
8.586405e-09 2.892218e-09 -5.910019e-09
8.404979e-09 3.031646e-09 -7.175970e-09
8.287478e-09 4.230558e-09 -7.028552e-09
9.267276e-09 3.140251e-09 -6.912069e-09
1.031860e-08 4.392542e-09 -7.797767e-09
1.025746e-08 4.904170e-09 -7.866132e-09
9.487746e-09 3.869383e-09 -6.304461e-09
1.093313e-08 3.905059e-09 -6.909070e-09
1.012486e-08 4.753804e-09 -6.502702e-09
1.143527e-08 5.033881e-09 -8.639672e-09
1.141122e-08 6.169168e-09 -7.689119e-09
1.121272e-08 5.278386e-09 -6.703748e-09
1.231774e-08 4.814910e-09 -8.454361e-09
1.118213e-08 6.620162e-09 -9.883767e-09
1.160992e-08 5.833309e-09 -1.040176e-08
1.119338e-08 6.090911e-09 -8.935612e-09
1.223077e-08 4.932991e-09 -9.140245e-09
1.182585e-08 5.824620e-09 -7.317210e-09
1.273664e-08 5.753355e-09 -8.059002e-09
1.333200e-08 5.082857e-09 -9.102175e-09
1.386185e-08 5.396882e-09 -1.046461e-08
1.208354e-08 7.065405e-09 -8.760363e-09
1.439028e-08 6.479551e-09 -1.002618e-08
1.363612e-08 6.214928e-09 -8.679689e-09
1.355280e-08 7.534398e-09 -9.128797e-09
1.996882e-09 1.602640e-09 -7.029362e-10
-4.436632e-09 -3.026651e-09 7.375016e-09
7.105044e-09 2.565523e-09 -6.581355e-09
7.259483e-09 3.299673e-09 -6.140448e-09
1.250363e-08 6.539476e-09 -1.124485e-08
2.205327e-09 1.154268e-09 6.070741e-10
-4.283966e-09 3.948296e-10 -8.409682e-10
8.024622e-09 3.246002e-09 -5.774267e-09
3.615487e-10 1.690240e-10 7.293098e-09
-2.979937e-10 4.547170e-10 -1.391182e-09
-3.255302e-09 -9.739068e-10 -2.467904e-09
7.730552e-09 3.015603e-09 -6.909176e-09
-4.479017e-09 1.729383e-09 -2.818587e-09
-5.672951e-09 1.285917e-09 1.532352e-09
-3.448584e-11 1.282719e-09 3.854041e-09
1.405128e-09 -9.528267e-10 5.089970e-09
1.028803e-08 4.648356e-09 -7.831949e-09
-4.547000e-09 -3.895794e-09 -2.515518e-09
-3.743467e-09 2.594863e-09 1.170860e-09
-3.192799e-09 -2.813068e-09 4.250674e-09
-5.940115e-09 2.564648e-09 1.339776e-09
1.107293e-08 4.591722e-09 -6.806409e-09
5.297639e-11 9.541387e-10 6.354601e-09
2.725139e-10 4.266384e-10 -2.236544e-09
4.821890e-10 1.644688e-09 3.922344e-09
-4.716169e-09 -1.951530e-09 5.046155e-09
-1.654095e-09 -2.479568e-09 4.583276e-09
-3.880241e-09 3.158592e-09 1.437740e-09
-2.240623e-09 -2.128276e-09 -3.626232e-09
1.331624e-08 6.653656e-09 -1.124654e-08
[...]
POINT_DATA 1605
VECTORS vector_force float
8.696861e+02 -2.718252e+02 -2.845007e+02 
5.490143e+02 2.627980e+02 -5.053342e+02 
4.551619e+02 -8.648158e+02 -1.346078e+02 
1.028426e+02 3.729850e+02 -3.573296e+02 
-1.179061e+02 3.675918e+02 -3.175145e+02 
-6.973168e+02 -4.742851e+02 5.732493e+02 
-5.141432e+02 2.882422e+02 9.420021e+01 
-2.085886e+02 1.078003e+03 -6.488359e+02 
2.034319e+02 6.712101e+01 7.262633e+02 
-4.980385e+02 -1.806187e+02 -3.594747e+02 
1.547015e+01 6.764709e+02 7.631792e+01 
3.111924e+02 -5.460197e+02 -7.547943e+02 
5.853636e+02 9.359823e+01 8.157813e+02 
7.352832e+01 1.863744e+02 1.844894e+02 
1.725456e+02 -3.957643e+02 -5.421551e+02 
2.450879e+02 -1.766409e+02 3.685174e+02 
-1.758305e+02 4.669528e+02 1.882294e+02 
4.142118e+02 -6.489428e+02 -2.134738e+02 
2.900440e+02 -7.615059e+02 6.636012e+01 
1.093598e+03 -5.034664e+02 -1.015867e+03 
5.086104e+02 -6.478266e+02 -7.770573e+02 
-1.278799e+02 -2.013361e+02 -3.788848e+02 
-5.650969e+02 -3.140215e+02 2.386495e+02 
6.174305e+02 -7.133792e+02 -1.322149e+03 
5.746222e+02 9.687859e+00 -5.076504e+02 
-2.099129e+02 2.905799e+02 9.537878e+02 
-2.743044e+02 -1.265196e+03 -3.365891e+02 
1.072083e+03 -7.922798e+02 -8.071169e+02 
-1.050184e+02 -5.186901e+02 3.772771e+02 
-8.392132e+02 -4.138964e+02 6.433842e+01 
-4.141914e+02 -1.547546e+02 4.051142e+02 
4.017325e+02 -4.090720e+02 1.477692e+02 
-1.720998e+02 3.493156e+02 5.804474e+02 
-3.148392e+02 3.446240e+02 2.860334e+02 
-6.569071e+02 -5.733596e+02 -1.279469e+02 
8.855022e+02 -6.222639e+02 3.321900e+02 
6.230767e+02 1.427639e+02 -9.034751e+02 
5.564279e+02 -1.013322e+03 -7.093992e+02 
9.564423e+01 -3.037590e+02 -6.271118e+01 
-4.803946e+02 6.072304e+02 9.223747e+02 
4.154182e+02 -5.395566e+02 -1.228399e+03 
6.958371e+02 1.264015e+02 -1.232328e+02 
-4.197012e+02 6.266445e+02 -1.012479e+03 
-7.013514e+01 8.298680e+02 2.617664e+02 
-4.617115e+02 5.024158e+01 5.202475e+02 
-1.745932e+02 -1.046425e+03 8.878404e+02 
-4.140627e+02 7.461122e+02 3.292200e+02 
8.494715e+02 7.642877e+02 3.858895e+02 
4.681283e+02 3.160152e+01 -2.626181e+02 
-5.588523e+01 -3.466432e+02 2.163545e+02 
8.226137e+01 -6.704078e+02 2.595505e+02 
-1.386340e+02 1.708309e+02 3.617037e+02 
3.300978e+02 6.212317e+01 5.844773e+01 
1.901915e+02 2.695442e+02 4.338336e+02 
-2.423852e+02 4.121269e+02 -6.561497e+02 
5.909983e+02 -7.572155e+01 4.250063e+02 
-5.194194e+02 -2.524352e+02 -7.447139e+02 
-7.111026e+02 -8.928378e+00 7.441400e+02 
3.432249e+02 -5.875479e+02 4.528158e+02 
8.144908e+01 1.502491e+00 -3.870945e+02 
-6.458200e+02 -1.888982e+02 -1.751031e+02 
-3.077745e+02 3.508877e+02 3.453692e+01 
6.429913e+01 -1.621306e+02 3.518069e+02 
-2.979653e+02 4.122407e+02 -1.249338e+02 
-7.985768e+02 -1.960706e+02 1.418384e+02 
-5.751366e+02 2.588059e+02 1.087744e+03 
7.561639e+02 -7.242440e+01 7.980397e+02 
-3.422164e+02 6.838166e+02 7.593442e+02 
8.785732e+02 8.350211e+02 -3.128714e+02 
-2.631574e+02 5.545120e+02 1.248373e+01 
6.861370e+02 2.599965e+02 8.517439e+01 
1.839812e+02 6.228561e+02 2.879024e+02 
-1.935019e+02 -1.827081e+02 -4.464652e+02 
6.537806e+02 4.097980e+02 -1.055715e+02 
-2.105545e+02 -6.086163e+01 -3.076488e+01 
-7.503923e+01 -2.465239e+02 6.306825e+01 
2.326096e+02 -1.061003e+03 1.894083e+02 
1.385591e+03 2.534314e+02 -4.668746e+02 
-4.765781e+02 -2.163532e+02 -2.701760e+02 
-5.050854e+02 -3.578297e+02 1.349333e+02 
-6.405718e+02 2.921736e+02 1.213888e+02 
3.418187e+02 -1.311496e+02 2.975079e+02 
-1.509972e+02 -8.307690e+02 3.880280e+02 
1.114684e+02 5.556218e+01 -8.372502e+02 
-6.900899e+02 1.609343e+02 2.018006e+02 
-7.305177e+02 1.157082e+03 -8.238058e+01 
-5.686706e+02 3.868202e+02 5.728390e+02 
8.653699e+02 -1.744357e+02 2.858717e+02 
1.947517e+01 -6.188195e+02 -4.713305e+02 
-3.047920e+02 -8.316820e+02 -4.745130e+02 
3.436162e+02 -2.362100e+02 -7.755689e+02 
-8.673674e+02 -1.697081e+02 -1.741553e+02 
2.381737e+02 -1.574419e+02 -6.886189e+01 
-4.871474e+02 -1.245927e+02 5.293690e+02 
6.771190e+02 7.282851e+00 -1.995086e+02 
5.925356e+02 -8.163625e+02 -1.622687e+02 
-9.969312e+01 1.703038e+02 3.517466e+02 
-1.175081e+02 1.482518e+03 7.152558e+00 
-9.092806e+00 1.988021e+02 8.237471e+02 
-2.421355e+02 3.276176e+02 -7.693764e+02 
-2.564268e+02 -6.235103e+01 -3.751519e+02 
1.701710e+02 -7.712549e+02 5.245478e+02 
-2.079859e+02 2.372981e+02 3.286953e+02 
1.878589e+02 -5.826958e+02 7.355013e+02 
1.849274e+02 4.932589e+02 4.148243e+02 
-4.563897e+02 -5.483318e+02 1.660191e+02 
-2.167579e+02 -4.937594e+01 -4.494749e+02 
4.518490e+02 -9.907914e+01 9.139973e+02 
-9.571110e+01 -4.515802e+02 3.918667e+02 
5.324434e+01 -3.923268e+02 -4.749551e+02 
7.734528e+02 1.702936e+02 -4.161807e+02 
-8.828235e+01 -8.172919e+02 -5.032717e+02 
1.001812e+03 -2.033813e+02 -3.801450e+02 
-5.148293e+02 -3.587044e+02 4.955122e+02 
-1.707523e+02 -1.243456e+02 3.928767e+02 
2.693478e+02 -1.580544e+02 8.658418e+02 
6.924686e+01 -3.911606e+01 8.398892e+02 
1.050608e+03 1.636656e+02 -4.722013e+02 
1.897729e+02 -4.065214e+02 -3.205598e+02 
-3.912145e+02 -2.711664e+02 -5.505322e+02 
-4.480464e+02 2.874181e+02 5.608521e+02 
9.013609e+02 2.054585e+02 -1.095235e+02 
2.385900e+01 -3.772784e+02 -1.413006e+02 
1.118379e+02 2.478420e+02 2.309767e+02 
3.756049e+02 -4.042852e+02 3.775855e+02 
3.434611e+02 -5.336192e+02 -1.361882e+02 
-5.449342e+02 -2.844483e+02 8.118679e+01 
-6.082991e+02 -2.855530e+02 5.536479e+02 
4.222767e+02 -3.974519e+02 1.874300e+02 
-4.754111e+02 -1.102155e+03 -7.007765e+02 
5.770211e+02 -2.174077e+02 -3.631201e+02 
-9.273933e+02 -2.179090e+02 3.577340e+02 
2.909381e+02 -1.074960e+02 -5.099635e+01 
-2.376136e+02 -4.686551e+01 4.362734e+02 
-5.846324e+02 -4.358266e+02 9.855907e+02 
-1.654370e+02 -6.705557e+02 -1.457413e+03 
-4.299695e+02 -5.851083e+02 3.722490e+02 
-1.953320e+02 5.505356e-01 -7.715466e+01 
-4.636250e+02 -1.119697e+02 1.953146e+02 
-9.824133e+02 1.141542e+02 9.446007e+01 
-8.549835e+02 1.346259e+02 9.143329e+01 
2.509408e+02 -9.553197e+02 -3.154031e+02 
-4.326296e+02 -3.633623e+01 1.301710e+02 
1.545911e+02 2.741375e+02 1.078693e+03 
-2.312430e+02 5.044365e+02 5.140845e+02 
-2.100123e+02 1.071966e+03 7.502210e+01 
-3.397964e+02 -9.394515e+01 5.832354e+02 
1.099406e+02 -4.956809e+02 -1.718033e+02 
6.115338e+02 -3.163100e+02 -5.464871e+01 
2.751988e+02 2.853500e+02 -2.261476e+02 
4.142475e+02 2.416331e+02 -6.215744e+01 
-1.216699e+02 -2.505051e+02 5.022026e+02 
-3.492249e+02 5.101018e+02 -1.176962e+02 
2.666404e+02 2.606815e+02 1.180824e+02 
-4.876302e+02 -3.570500e+02 7.521212e+01 
-7.123169e+01 8.906323e+02 -1.457084e+01 
-6.121782e+02 6.761614e+02 9.689225e+02 
2.452726e+02 9.323847e+00 -1.049790e+02 
-6.132484e+02 -7.528483e+02 -5.863981e+02 
-2.938614e+02 -2.617556e+01 -2.685862e+02 
-9.766563e+01 4.291142e+02 -1.561237e+02 
-4.736751e+01 -3.803916e+02 -3.898045e+02 
-7.938276e+02 2.132112e+02 9.521910e+01 
-5.034705e+02 3.496628e+01 -1.926128e+02 
9.208858e+01 5.870804e+02 1.756570e+02 
3.748801e+02 -9.039452e+02 9.358645e+02 
-3.853862e+02 -2.773157e+02 -5.315205e+02 
-3.615946e+02 -6.758977e+00 3.000107e+02 
1.189053e+02 1.417308e+02 4.566627e+02 
2.642636e+02 -3.513858e+02 -6.751589e+01 
-1.861376e+02 1.045729e+02 3.704293e+02 
-3.076575e+02 -2.323542e+02 -4.132227e+02 
-6.043113e+02 -3.300351e+01 -1.953514e+02 
-1.163270e+03 6.506166e+02 8.329043e+02 
-6.789140e+02 8.168257e+02 -3.517067e+02 
-2.506314e+02 -2.644169e+02 -1.575689e+02 
-1.649876e+02 1.265319e+02 7.355334e+02 
9.412444e+02 7.776721e+02 -1.129481e+03 
-2.913325e+02 7.759391e+01 4.708221e+02 
-1.602415e+03 -5.430102e+02 4.971432e+02 
-1.483785e+02 -7.969671e+02 8.987912e+02 
-1.628489e+01 9.361321e+02 -3.324654e+02 
1.072658e+01 1.073796e+02 5.596887e+02 
3.111191e+02 -1.148083e+02 1.595088e+02 
-2.400338e+02 4.651202e+02 1.024599e+03 
-1.357863e+02 1.109817e+03 5.186398e+02 
-3.345521e+02 -2.594259e+02 1.042860e+03 
-1.856105e+02 7.681961e+02 6.853709e+02 
1.328471e+03 6.087692e+02 2.926447e+02 
-9.844061e+02 3.163208e+02 1.806236e+02 
4.319413e+02 5.173974e+02 -1.886028e+02 
1.136565e+02 7.879633e+02 -4.293119e+01 
6.480709e+02 -9.543562e+01 3.607446e+02 
1.026813e+02 -3.114862e+02 3.182294e+02 
-4.243877e+02 4.710798e+02 -3.350407e+02 
-1.211134e+01 -5.842756e+01 5.589447e+02 
-6.774827e+02 3.585492e+01 1.472929e+02 
8.932203e+02 -3.087750e+01 4.815082e+02 
-2.376973e+02 1.174319e+03 9.014571e+02 
3.729741e+02 3.767419e+02 -2.469781e+02 
3.557108e+02 -3.376920e+02 1.003068e+02 
-1.705582e+02 -5.658477e+02 8.638598e+02 
3.348637e+02 -9.342055e+02 2.233040e+02 
2.835585e+02 1.998006e+02 6.634256e+02 
-2.843746e+02 -6.351153e+01 -5.771781e+01 
1.105981e+03 7.007488e+02 8.663029e+01 
-1.591313e+02 6.671093e+02 4.135741e+02 
-6.649116e+02 2.636597e+02 -3.980754e+02 
2.147598e+02 -8.330772e+01 -4.535411e+02 
1.584937e+02 1.047653e+02 9.803826e+02 
-1.527991e+02 -1.101044e+02 -2.572060e+02 
7.193496e+02 1.823283e+02 -2.791794e+02 
-6.746335e+01 5.922995e+02 -7.337820e+02 
0.000000e+00 0.000000e+00 0.000000e+00 
0.000000e+00 0.000000e+00 0.000000e+00 
0.000000e+00 0.000000e+00 0.000000e+00 
0.000000e+00 0.000000e+00 0.000000e+00 
0.000000e+00 0.000000e+00 0.000000e+00 
0.000000e+00 0.000000e+00 0.000000e+00 
0.000000e+00 0.000000e+00 0.000000e+00 
0.000000e+00 0.000000e+00 0.000000e+00 
0.000000e+00 0.000000e+00 0.000000e+00 
0.000000e+00 0.000000e+00 0.000000e+00 
0.000000e+00 0.000000e+00 0.000000e+00 
0.000000e+00 0.000000e+00 0.000000e+00 
0.000000e+00 0.000000e+00 0.000000e+00 
0.000000e+00 0.000000e+00 0.000000e+00 
0.000000e+00 0.000000e+00 0.000000e+00 
0.000000e+00 0.000000e+00 0.000000e+00 
0.000000e+00 0.000000e+00 0.000000e+00 
0.000000e+00 0.000000e+00 0.000000e+00 
0.000000e+00 0.000000e+00 0.000000e+00 
0.000000e+00 0.000000e+00 0.000000e+00 
0.000000e+00 0.000000e+00 0.000000e+00 
0.000000e+00 0.000000e+00 0.000000e+00 
0.000000e+00 0.000000e+00 0.000000e+00 
0.000000e+00 0.000000e+00 0.000000e+00 
0.000000e+00 0.000000e+00 0.000000e+00 
0.000000e+00 0.000000e+00 0.000000e+00 
0.000000e+00 0.000000e+00 0.000000e+00 
0.000000e+00 0.000000e+00 0.000000e+00 
0.000000e+00 0.000000e+00 0.000000e+00 
0.000000e+00 0.000000e+00 0.000000e+00 
0.000000e+00 0.000000e+00 0.000000e+00 
0.000000e+00 0.000000e+00 0.000000e+00 
0.000000e+00 0.000000e+00 0.000000e+00 
0.000000e+00 0.000000e+00 0.000000e+00 
0.000000e+00 0.000000e+00 0.000000e+00 
0.000000e+00 0.000000e+00 0.000000e+00 
0.000000e+00 0.000000e+00 0.000000e+00 
0.000000e+00 0.000000e+00 0.000000e+00 
0.000000e+00 0.000000e+00 0.000000e+00 
0.000000e+00 0.000000e+00 0.000000e+00 
0.000000e+00 0.000000e+00 0.000000e+00 
0.000000e+00 0.000000e+00 0.000000e+00 
0.000000e+00 0.000000e+00 0.000000e+00 
0.000000e+00 0.000000e+00 0.000000e+00 
0.000000e+00 0.000000e+00 0.000000e+00 
0.000000e+00 0.000000e+00 0.000000e+00 
0.000000e+00 0.000000e+00 0.000000e+00 
0.000000e+00 0.000000e+00 0.000000e+00 
0.000000e+00 0.000000e+00 0.000000e+00 
0.000000e+00 0.000000e+00 0.000000e+00 
0.000000e+00 0.000000e+00 0.000000e+00 
0.000000e+00 0.000000e+00 0.000000e+00 
0.000000e+00 0.000000e+00 0.000000e+00 
0.000000e+00 0.000000e+00 0.000000e+00 
0.000000e+00 0.000000e+00 0.000000e+00 
0.000000e+00 0.000000e+00 0.000000e+00 
0.000000e+00 0.000000e+00 0.000000e+00 
0.000000e+00 0.000000e+00 0.000000e+00 
0.000000e+00 0.000000e+00 0.000000e+00 
0.000000e+00 0.000000e+00 0.000000e+00 
0.000000e+00 0.000000e+00 0.000000e+00 
0.000000e+00 0.000000e+00 0.000000e+00 
0.000000e+00 0.000000e+00 0.000000e+00 
0.000000e+00 0.000000e+00 0.000000e+00 
0.000000e+00 0.000000e+00 0.000000e+00 
0.000000e+00 0.000000e+00 0.000000e+00 
0.000000e+00 0.000000e+00 0.000000e+00 
0.000000e+00 0.000000e+00 0.000000e+00 
0.000000e+00 0.000000e+00 0.000000e+00 
0.000000e+00 0.000000e+00 0.000000e+00 
0.000000e+00 0.000000e+00 0.000000e+00 
0.000000e+00 0.000000e+00 0.000000e+00 
0.000000e+00 0.000000e+00 0.000000e+00 
0.000000e+00 0.000000e+00 0.000000e+00 
0.000000e+00 0.000000e+00 0.000000e+00 
0.000000e+00 0.000000e+00 0.000000e+00 
0.000000e+00 0.000000e+00 0.000000e+00 
0.000000e+00 0.000000e+00 0.000000e+00 
0.000000e+00 0.000000e+00 0.000000e+00 
0.000000e+00 0.000000e+00 0.000000e+00 
0.000000e+00 0.000000e+00 0.000000e+00 
0.000000e+00 0.000000e+00 0.000000e+00 
0.000000e+00 0.000000e+00 0.000000e+00 
0.000000e+00 0.000000e+00 0.000000e+00 
0.000000e+00 0.000000e+00 0.000000e+00 
0.000000e+00 0.000000e+00 0.000000e+00 
0.000000e+00 0.000000e+00 0.000000e+00 
0.000000e+00 0.000000e+00 0.000000e+00 
0.000000e+00 0.000000e+00 0.000000e+00 
0.000000e+00 0.000000e+00 0.000000e+00 
0.000000e+00 0.000000e+00 0.000000e+00 
0.000000e+00 0.000000e+00 0.000000e+00 
0.000000e+00 0.000000e+00 0.000000e+00 
0.000000e+00 0.000000e+00 0.000000e+00 
0.000000e+00 0.000000e+00 0.000000e+00 
0.000000e+00 0.000000e+00 0.000000e+00 
0.000000e+00 0.000000e+00 0.000000e+00 
0.000000e+00 0.000000e+00 0.000000e+00 
0.000000e+00 0.000000e+00 0.000000e+00 
0.000000e+00 0.000000e+00 0.000000e+00 
0.000000e+00 0.000000e+00 0.000000e+00 
0.000000e+00 0.000000e+00 0.000000e+00 
0.000000e+00 0.000000e+00 0.000000e+00 
0.000000e+00 0.000000e+00 0.000000e+00 
0.000000e+00 0.000000e+00 0.000000e+00 
0.000000e+00 0.000000e+00 0.000000e+00 
0.000000e+00 0.000000e+00 0.000000e+00 
0.000000e+00 0.000000e+00 0.000000e+00 
0.000000e+00 0.000000e+00 0.000000e+00 
0.000000e+00 0.000000e+00 0.000000e+00 
0.000000e+00 0.000000e+00 0.000000e+00 
0.000000e+00 0.000000e+00 0.000000e+00 
0.000000e+00 0.000000e+00 0.000000e+00 
0.000000e+00 0.000000e+00 0.000000e+00 
0.000000e+00 0.000000e+00 0.000000e+00 
0.000000e+00 0.000000e+00 0.000000e+00 
0.000000e+00 0.000000e+00 0.000000e+00 
0.000000e+00 0.000000e+00 0.000000e+00 
0.000000e+00 0.000000e+00 0.000000e+00 
0.000000e+00 0.000000e+00 0.000000e+00 
0.000000e+00 0.000000e+00 0.000000e+00 
0.000000e+00 0.000000e+00 0.000000e+00 
0.000000e+00 0.000000e+00 0.000000e+00 
0.000000e+00 0.000000e+00 0.000000e+00 
0.000000e+00 0.000000e+00 0.000000e+00 
0.000000e+00 0.000000e+00 0.000000e+00 
0.000000e+00 0.000000e+00 0.000000e+00 
0.000000e+00 0.000000e+00 0.000000e+00 
0.000000e+00 0.000000e+00 0.000000e+00 
0.000000e+00 0.000000e+00 0.000000e+00 
0.000000e+00 0.000000e+00 0.000000e+00 
0.000000e+00 0.000000e+00 0.000000e+00 
0.000000e+00 0.000000e+00 0.000000e+00 
0.000000e+00 0.000000e+00 0.000000e+00 
0.000000e+00 0.000000e+00 0.000000e+00 
0.000000e+00 0.000000e+00 0.000000e+00 
0.000000e+00 0.000000e+00 0.000000e+00 
0.000000e+00 0.000000e+00 0.000000e+00 
0.000000e+00 0.000000e+00 0.000000e+00 
0.000000e+00 0.000000e+00 0.000000e+00 
0.000000e+00 0.000000e+00 0.000000e+00 
0.000000e+00 0.000000e+00 0.000000e+00 
0.000000e+00 0.000000e+00 0.000000e+00 
0.000000e+00 0.000000e+00 0.000000e+00 
0.000000e+00 0.000000e+00 0.000000e+00 
0.000000e+00 0.000000e+00 0.000000e+00 
0.000000e+00 0.000000e+00 0.000000e+00 
0.000000e+00 0.000000e+00 0.000000e+00 
0.000000e+00 0.000000e+00 0.000000e+00 
0.000000e+00 0.000000e+00 0.000000e+00 
0.000000e+00 0.000000e+00 0.000000e+00 
0.000000e+00 0.000000e+00 0.000000e+00 
0.000000e+00 0.000000e+00 0.000000e+00 
0.000000e+00 0.000000e+00 0.000000e+00 
0.000000e+00 0.000000e+00 0.000000e+00 
0.000000e+00 0.000000e+00 0.000000e+00 
0.000000e+00 0.000000e+00 0.000000e+00 
0.000000e+00 0.000000e+00 0.000000e+00 
0.000000e+00 0.000000e+00 0.000000e+00 
0.000000e+00 0.000000e+00 0.000000e+00 
0.000000e+00 0.000000e+00 0.000000e+00 
0.000000e+00 0.000000e+00 0.000000e+00 
0.000000e+00 0.000000e+00 0.000000e+00 
0.000000e+00 0.000000e+00 0.000000e+00 
0.000000e+00 0.000000e+00 0.000000e+00 
0.000000e+00 0.000000e+00 0.000000e+00 
0.000000e+00 0.000000e+00 0.000000e+00 
0.000000e+00 0.000000e+00 0.000000e+00 
0.000000e+00 0.000000e+00 0.000000e+00 
0.000000e+00 0.000000e+00 0.000000e+00 
0.000000e+00 0.000000e+00 0.000000e+00 
0.000000e+00 0.000000e+00 0.000000e+00 
0.000000e+00 0.000000e+00 0.000000e+00 
0.000000e+00 0.000000e+00 0.000000e+00 
0.000000e+00 0.000000e+00 0.000000e+00 
0.000000e+00 0.000000e+00 0.000000e+00 
0.000000e+00 0.000000e+00 0.000000e+00 
0.000000e+00 0.000000e+00 0.000000e+00 
0.000000e+00 0.000000e+00 0.000000e+00 
0.000000e+00 0.000000e+00 0.000000e+00 
0.000000e+00 0.000000e+00 0.000000e+00 
0.000000e+00 0.000000e+00 0.000000e+00 
0.000000e+00 0.000000e+00 0.000000e+00 
0.000000e+00 0.000000e+00 0.000000e+00 
0.000000e+00 0.000000e+00 0.000000e+00 
0.000000e+00 0.000000e+00 0.000000e+00 
0.000000e+00 0.000000e+00 0.000000e+00 
0.000000e+00 0.000000e+00 0.000000e+00 
0.000000e+00 0.000000e+00 0.000000e+00 
0.000000e+00 0.000000e+00 0.000000e+00 
0.000000e+00 0.000000e+00 0.000000e+00 
0.000000e+00 0.000000e+00 0.000000e+00 
0.000000e+00 0.000000e+00 0.000000e+00 
0.000000e+00 0.000000e+00 0.000000e+00 
0.000000e+00 0.000000e+00 0.000000e+00 
0.000000e+00 0.000000e+00 0.000000e+00 
0.000000e+00 0.000000e+00 0.000000e+00 
0.000000e+00 0.000000e+00 0.000000e+00 
0.000000e+00 0.000000e+00 0.000000e+00 
0.000000e+00 0.000000e+00 0.000000e+00 
0.000000e+00 0.000000e+00 0.000000e+00 
0.000000e+00 0.000000e+00 0.000000e+00 
0.000000e+00 0.000000e+00 0.000000e+00 
0.000000e+00 0.000000e+00 0.000000e+00 
0.000000e+00 0.000000e+00 0.000000e+00 
0.000000e+00 0.000000e+00 0.000000e+00 
0.000000e+00 0.000000e+00 0.000000e+00 
0.000000e+00 0.000000e+00 0.000000e+00 
0.000000e+00 0.000000e+00 0.000000e+00 
0.000000e+00 0.000000e+00 0.000000e+00 
0.000000e+00 0.000000e+00 0.000000e+00 
0.000000e+00 0.000000e+00 0.000000e+00 
0.000000e+00 0.000000e+00 0.000000e+00 
0.000000e+00 0.000000e+00 0.000000e+00 
0.000000e+00 0.000000e+00 0.000000e+00 
0.000000e+00 0.000000e+00 0.000000e+00 
0.000000e+00 0.000000e+00 0.000000e+00 
0.000000e+00 0.000000e+00 0.000000e+00 
0.000000e+00 0.000000e+00 0.000000e+00 
0.000000e+00 0.000000e+00 0.000000e+00 
0.000000e+00 0.000000e+00 0.000000e+00 
0.000000e+00 0.000000e+00 0.000000e+00 
0.000000e+00 0.000000e+00 0.000000e+00 
0.000000e+00 0.000000e+00 0.000000e+00 
0.000000e+00 0.000000e+00 0.000000e+00 
0.000000e+00 0.000000e+00 0.000000e+00 
0.000000e+00 0.000000e+00 0.000000e+00 
0.000000e+00 0.000000e+00 0.000000e+00 
0.000000e+00 0.000000e+00 0.000000e+00 
0.000000e+00 0.000000e+00 0.000000e+00 
0.000000e+00 0.000000e+00 0.000000e+00 
0.000000e+00 0.000000e+00 0.000000e+00 
0.000000e+00 0.000000e+00 0.000000e+00 
0.000000e+00 0.000000e+00 0.000000e+00 
0.000000e+00 0.000000e+00 0.000000e+00 
0.000000e+00 0.000000e+00 0.000000e+00 
0.000000e+00 0.000000e+00 0.000000e+00 
0.000000e+00 0.000000e+00 0.000000e+00 
0.000000e+00 0.000000e+00 0.000000e+00 
0.000000e+00 0.000000e+00 0.000000e+00 
0.000000e+00 0.000000e+00 0.000000e+00 
0.000000e+00 0.000000e+00 0.000000e+00 
0.000000e+00 0.000000e+00 0.000000e+00 
0.000000e+00 0.000000e+00 0.000000e+00 
0.000000e+00 0.000000e+00 0.000000e+00 
0.000000e+00 0.000000e+00 0.000000e+00 
0.000000e+00 0.000000e+00 0.000000e+00 
0.000000e+00 0.000000e+00 0.000000e+00 
0.000000e+00 0.000000e+00 0.000000e+00 
0.000000e+00 0.000000e+00 0.000000e+00 
0.000000e+00 0.000000e+00 0.000000e+00 
0.000000e+00 0.000000e+00 0.000000e+00 
0.000000e+00 0.000000e+00 0.000000e+00 
0.000000e+00 0.000000e+00 0.000000e+00 
0.000000e+00 0.000000e+00 0.000000e+00 
0.000000e+00 0.000000e+00 0.000000e+00 
0.000000e+00 0.000000e+00 0.000000e+00 
0.000000e+00 0.000000e+00 0.000000e+00 
0.000000e+00 0.000000e+00 0.000000e+00 
0.000000e+00 0.000000e+00 0.000000e+00 
0.000000e+00 0.000000e+00 0.000000e+00 
0.000000e+00 0.000000e+00 0.000000e+00 
0.000000e+00 0.000000e+00 0.000000e+00 
0.000000e+00 0.000000e+00 0.000000e+00 
0.000000e+00 0.000000e+00 0.000000e+00 
0.000000e+00 0.000000e+00 0.000000e+00 
0.000000e+00 0.000000e+00 0.000000e+00 
0.000000e+00 0.000000e+00 0.000000e+00 
0.000000e+00 0.000000e+00 0.000000e+00 
0.000000e+00 0.000000e+00 0.000000e+00 
0.000000e+00 0.000000e+00 0.000000e+00 
0.000000e+00 0.000000e+00 0.000000e+00 
0.000000e+00 0.000000e+00 0.000000e+00 
0.000000e+00 0.000000e+00 0.000000e+00 
0.000000e+00 0.000000e+00 0.000000e+00 
0.000000e+00 0.000000e+00 0.000000e+00 
0.000000e+00 0.000000e+00 0.000000e+00 