# vtk DataFile Version 3.1
*description-name of input file* step:3001 
ASCII
DATASET UNSTRUCTURED_GRID
POINTS 1605 FLOAT
-7.191568e-09 -5.535251e-09 -9.213411e-11
-7.772887e-09 -4.696033e-09 -5.242848e-10
-6.207568e-09 -4.860475e-09 -7.260091e-10
-7.560335e-09 -4.136971e-09 2.219458e-09
-5.571611e-09 -6.066367e-09 -2.420085e-11
1.213094e-08 6.987632e-09 -1.063671e-08
1.381885e-08 7.012902e-09 -1.120770e-08
1.276263e-08 5.503851e-09 -1.198499e-08
-6.528383e-09 -6.232299e-09 9.269527e-10
-6.223355e-09 -2.810456e-09 7.174106e-10
-4.508273e-09 -4.662140e-09 -1.025450e-09
-6.239146e-09 -3.010671e-09 -2.533522e-10
-5.592887e-09 -5.178502e-09 2.198232e-09
-5.948139e-09 -3.532806e-09 1.595067e-09
-5.359475e-09 -3.510073e-09 -1.590943e-09
-7.430591e-09 -4.119627e-09 3.157954e-09
-3.631362e-09 -5.705384e-09 2.590343e-10
-6.458156e-09 -1.046545e-09 3.106250e-11
-5.424173e-09 -1.538475e-09 -7.301782e-10
-3.884509e-09 -4.065943e-09 -3.198484e-09
-5.217398e-09 -2.452453e-09 -3.124640e-09
-3.786534e-09 -1.998196e-09 -4.133492e-09
-6.500703e-09 -2.547382e-09 2.257604e-09
-5.574337e-09 -8.302077e-11 -2.426648e-09
-6.186312e-09 5.939942e-10 -1.011405e-09
-3.404947e-09 -4.704891e-09 2.027768e-09
-7.206120e-09 -1.027144e-09 1.165376e-09
-5.799943e-09 -3.357465e-09 3.918606e-09
-4.102776e-09 -2.123280e-09 -4.262174e-10
-8.158886e-09 -1.994490e-09 2.892395e-09
-2.655091e-09 -4.463405e-09 -2.360916e-09
-2.963852e-09 -3.262085e-09 -4.016564e-09
-2.219585e-09 -4.199017e-09 -3.509929e-09
-3.749328e-09 -3.669644e-09 -5.902943e-10
-6.110186e-09 -2.312024e-09 4.080415e-09
-4.244111e-09 -7.607866e-10 -2.166512e-09
-5.861517e-09 -6.533764e-10 2.195822e-09
-4.732951e-09 -2.284026e-10 6.689825e-10
-2.859626e-09 -2.195018e-09 -1.954987e-09
-4.142162e-09 -3.992680e-09 3.851792e-09
-4.808213e-09 4.706723e-11 -5.205380e-10
-4.110914e-09 6.988366e-10 -5.058410e-09
-4.111701e-09 5.890766e-10 -3.019000e-09
-5.046285e-09 1.020668e-09 -3.508863e-09
-4.216006e-09 -2.395106e-09 2.326783e-09
-1.523935e-09 -3.154708e-09 -6.643468e-10
-4.775263e-09 2.476363e-09 -4.344045e-09
-3.028118e-09 -1.442192e-09 -3.100999e-09
-2.954418e-09 2.684996e-10 -2.593868e-09
-1.660405e-09 -1.778092e-09 -3.258094e-09
-3.277910e-09 4.712668e-10 -8.353200e-10
-3.283697e-09 -2.013046e-09 3.019120e-10
-3.436388e-09 5.004067e-11 -4.983846e-09
-1.783066e-09 -2.345363e-09 -1.696693e-09
-3.639958e-09 -6.262696e-10 8.289590e-09
-2.090908e-09 -2.004865e-09 7.321135e-09
-1.818794e-09 4.522262e-10 7.363809e-09
-1.368430e-09 8.995103e-10 -4.015963e-09
-6.035022e-09 -3.107761e-09 6.177029e-09
-4.424401e-09 2.352258e-09 -2.514759e-09
-3.732073e-09 -2.730347e-09 3.965989e-09
-4.322659e-09 -4.247587e-10 2.683944e-09
-3.935377e-09 -1.465361e-09 1.453521e-09
-5.657084e-09 2.076472e-09 -3.676662e-10
-5.015305e-09 8.850930e-10 1.151969e-09
-6.514184e-09 1.610757e-09 2.068176e-09
-4.894963e-09 -4.274347e-09 5.891840e-09
-4.728684e-09 -3.879077e-09 7.327068e-09
-6.277429e-09 -1.636400e-09 6.644431e-09
-1.857311e-09 1.818245e-09 2.265488e-09
-2.665072e-10 1.998296e-09 4.036413e-09
-1.151071e-09 2.188081e-09 7.998452e-10
-4.710773e-09 3.629412e-10 -7.313808e-10
-3.144735e-09 -4.269890e-09 5.526318e-09
9.932909e-10 3.703979e-10 3.688981e-09
8.956235e-10 1.028108e-09 4.178409e-09
-1.571943e-10 8.049822e-10 5.616341e-09
-5.889919e-09 3.107726e-09 1.388776e-09
-4.896617e-09 -1.591550e-09 5.426894e-09
-1.122922e-09 -1.698033e-11 -1.394940e-09
-4.726795e-09 -2.074035e-09 4.631644e-09
-3.314754e-09 2.209338e-10 7.853822e-10
-2.094085e-09 -4.522388e-10 2.107741e-12
-5.907943e-09 2.159195e-09 4.032544e-09
-2.627494e-09 -5.227192e-09 3.780928e-09
-3.086283e-09 2.428825e-09 -4.037124e-09
-2.237316e-09 -3.655019e-09 2.747931e-09
-5.732599e-09 -6.257376e-10 5.262837e-09
-2.752702e-09 2.022420e-09 -2.279336e-09
-4.195049e-09 -1.873553e-10 4.808671e-09
-2.971943e-09 -2.831807e-09 5.199093e-09
-5.761075e-09 -5.115094e-10 3.967405e-09
-3.137322e-09 -1.068124e-09 4.304259e-09
-5.564605e-10 -1.336176e-09 2.012700e-10
-4.643585e-09 3.443248e-09 2.529294e-09
-3.655263e-09 2.704557e-09 -8.014287e-10
-3.194870e-10 -1.523749e-09 -3.209299e-09
1.337755e-11 -2.764246e-09 -2.625572e-09
-3.993054e-09 -2.268612e-09 8.056804e-09
-5.208386e-09 -1.477465e-09 7.708968e-09
-5.325148e-09 1.301680e-10 7.622871e-09
6.796514e-10 2.243242e-09 3.099054e-09
-3.873819e-09 1.523350e-09 9.597842e-10
-4.126218e-09 2.944106e-09 3.295525e-10
-6.536964e-09 1.049337e-09 4.740779e-09
-4.277629e-09 8.901039e-11 3.397165e-09
-3.745119e-09 -2.708167e-09 6.437434e-09
-7.958874e-11 -8.550889e-11 -3.167133e-09
-1.377909e-09 -2.789802e-09 3.769391e-09
-5.015783e-09 1.237529e-09 6.699507e-09
-3.595362e-09 6.235589e-10 3.298313e-09
-4.266792e-09 2.175216e-09 5.630152e-09
-4.284447e-09 1.986281e-09 3.064445e-09
-3.909975e-10 -4.100927e-09 2.768130e-09
8.571344e-10 -3.525601e-09 4.448769e-09
-4.033814e-09 2.448921e-09 2.040734e-09
5.265803e-10 -1.701254e-09 -4.716871e-10
-4.513287e-09 2.778065e-09 4.286731e-09
1.255667e-09 -1.192683e-09 -3.750800e-09
-8.076093e-10 -4.022559e-09 6.376745e-09
-5.769908e-10 -5.162682e-10 1.227196e-09
-2.282451e-09 -3.123528e-09 6.433444e-09
-1.973795e-09 -2.173933e-09 5.515247e-09
-1.518666e-09 -4.628817e-10 2.659289e-09
-1.256031e-09 -1.758406e-09 4.477037e-09
-2.845619e-09 1.283503e-09 3.643758e-09
1.828736e-09 -1.147232e-09 -1.629117e-09
7.493208e-10 6.330936e-10 -1.337452e-09
1.236278e-09 -5.390008e-10 5.887775e-09
-3.145890e-09 1.089344e-09 5.921530e-09
8.320469e-10 4.796936e-10 -3.386676e-09
1.131725e-09 -4.719393e-09 3.241028e-09
-9.434319e-10 -8.137485e-10 3.971064e-09
1.067256e-09 -1.022606e-09 -1.848792e-10
7.059967e-10 -3.515473e-09 5.512619e-09
-2.950023e-09 8.795680e-10 7.307079e-09
-2.679342e-09 2.247829e-09 5.425964e-09
-1.182918e-09 -1.916375e-09 6.643839e-09
1.868652e-09 -4.516124e-09 3.927826e-09
1.971357e-09 -3.606637e-09 2.679134e-09
-4.101788e-10 -1.544705e-09 2.912770e-09
-2.935055e-10 -2.639210e-09 6.956729e-09
1.324281e-09 -1.776636e-09 1.871832e-09
1.785519e-09 -4.615104e-10 -2.440719e-09
-1.174046e-09 1.395544e-09 3.617554e-09
-8.594903e-10 -1.244411e-09 8.035877e-09
1.709416e-09 4.030774e-10 -3.923035e-11
2.554838e-09 -3.548518e-09 4.872379e-09
3.303016e-09 -3.884818e-09 3.812045e-09
1.592645e-09 9.281623e-10 -1.378202e-09
4.486172e-10 -2.083935e-09 6.350527e-09
-1.663430e-09 9.534065e-10 5.185774e-09
3.007369e-09 -5.964428e-10 1.075982e-09
2.648110e-09 3.867850e-10 -4.121732e-09
1.825053e-09 -2.767478e-09 5.050401e-09
3.673836e-09 -2.492570e-09 2.411715e-09
3.363221e-09 3.349429e-10 -2.266635e-09
2.665805e-09 2.313751e-09 -2.667287e-09
2.896787e-09 2.308978e-09 -4.399997e-09
3.600220e-09 1.076803e-09 -3.759934e-09
4.578759e-09 1.821794e-09 -5.418310e-09
1.329769e-09 -1.421084e-09 4.365387e-09
7.469595e-10 -7.240525e-10 7.374717e-09
2.732207e-09 -8.965272e-10 2.046701e-09
1.390810e-09 1.194534e-09 5.118367e-10
2.024854e-09 1.331316e-09 -4.002777e-10
4.562831e-09 1.570795e-09 -3.544361e-09
4.317348e-10 1.476084e-09 7.217031e-09
1.445206e-09 1.067148e-09 2.179016e-09
2.983165e-09 -2.241894e-09 3.576348e-09
2.121893e-09 6.989125e-13 3.386336e-09
3.413868e-09 -9.032645e-10 2.140683e-09
4.217188e-09 2.719767e-09 -3.482564e-09
2.969059e-09 6.426560e-10 -7.326054e-10
3.119056e-09 1.305025e-09 -1.918898e-09
4.756353e-09 2.670239e-09 -5.017536e-09
3.460665e-09 1.258695e-09 9.799426e-10
5.273778e-09 1.891235e-09 -5.832322e-09
5.228079e-09 1.541231e-09 -4.723833e-09
3.550330e-09 -1.677003e-10 1.520873e-10
3.269495e-09 1.155680e-09 2.690021e-09
6.466281e-09 1.380380e-09 -5.663732e-09
5.847350e-09 2.844152e-09 -4.105823e-09
7.520979e-09 3.070456e-09 -6.749358e-09
7.007442e-09 1.970419e-09 -4.826734e-09
7.249331e-09 2.338499e-09 -6.394843e-09
6.018355e-09 3.362045e-09 -5.293731e-09
7.174285e-09 3.183015e-09 -5.522147e-09
8.613725e-09 2.750816e-09 -5.660070e-09
8.474412e-09 3.007970e-09 -7.112861e-09
8.859763e-09 4.055607e-09 -6.487310e-09
9.889115e-09 3.038679e-09 -6.912666e-09
1.025626e-08 4.497695e-09 -7.884558e-09
1.030839e-08 5.109875e-09 -7.755150e-09
9.350870e-09 3.805727e-09 -5.690185e-09
1.117532e-08 4.488499e-09 -6.810391e-09
1.019038e-08 4.846656e-09 -6.067138e-09
1.067311e-08 4.928008e-09 -8.707164e-09
1.140323e-08 6.567179e-09 -7.542319e-09
1.143354e-08 5.215838e-09 -6.393385e-09
1.271339e-08 5.067717e-09 -8.147142e-09
1.115977e-08 6.720537e-09 -9.927048e-09
1.152019e-08 6.036459e-09 -1.045503e-08
1.113763e-08 6.096820e-09 -8.992861e-09
1.193699e-08 4.986229e-09 -8.828559e-09
1.165877e-08 5.796233e-09 -6.981840e-09
1.288865e-08 5.677943e-09 -8.037272e-09
1.328785e-08 4.842442e-09 -8.715482e-09
1.397151e-08 4.685481e-09 -1.042781e-08
1.178529e-08 6.709893e-09 -8.705697e-09
1.437327e-08 6.557667e-09 -1.043981e-08
1.405414e-08 6.518597e-09 -8.939072e-09
1.374326e-08 7.615483e-09 -9.380506e-09
1.808749e-09 1.129739e-09 -8.892401e-10
-4.360869e-09 -3.073845e-09 7.691936e-09
7.385155e-09 2.704477e-09 -6.572101e-09
7.347632e-09 3.126736e-09 -6.135752e-09
1.244679e-08 6.245742e-09 -1.131085e-08
2.425738e-09 1.226615e-09 7.458896e-10
-4.043062e-09 2.591670e-10 -6.779290e-10
7.894005e-09 2.966915e-09 -5.591108e-09
5.893472e-10 3.760158e-10 7.295874e-09
-1.868005e-10 3.080567e-10 -1.366196e-09
-2.907022e-09 -9.632594e-10 -2.274427e-09
7.997695e-09 3.039213e-09 -6.931110e-09
-4.735343e-09 1.686463e-09 -3.011811e-09
-5.764745e-09 1.247925e-09 1.610073e-09
-1.392115e-10 1.211826e-09 3.897982e-09
1.283023e-09 -9.800425e-10 5.126581e-09
1.028233e-08 4.803785e-09 -7.819854e-09
-4.621992e-09 -3.788008e-09 -2.394713e-09
-4.080016e-09 2.696514e-09 1.185143e-09
-3.352008e-09 -2.781077e-09 4.582541e-09
-6.202051e-09 2.359242e-09 1.728476e-09
1.130443e-08 4.852168e-09 -6.601888e-09
1.372703e-10 1.140533e-09 6.416686e-09
3.348660e-10 2.737924e-10 -2.252293e-09
3.145582e-10 1.513202e-09 4.107411e-09
-4.811706e-09 -1.832793e-09 5.029269e-09
-1.675852e-09 -2.481868e-09 4.642319e-09
-4.384902e-09 3.193677e-09 1.429423e-09
-2.312128e-09 -2.520089e-09 -3.637329e-09
1.329074e-08 6.258376e-09 -1.159634e-08
[...]
POINT_DATA 1605
VECTORS vector_force float
1.670006e+02 9.756579e+01 -9.643683e+02 
6.971612e+01 -5.318115e+02 -3.440157e+02 
-6.256896e+01 -2.528316e+02 1.238275e+01 
8.372804e-01 3.623072e+02 -1.116330e+03 
-2.580637e+01 -2.733508e+02 -3.038743e+02 
-7.627195e+02 -9.487538e+02 1.733449e+02 
-1.332642e+03 -4.750574e+02 -2.196963e+01 
6.172801e+01 -6.106665e+02 7.293277e+02 
-4.727178e+02 1.426472e+02 -5.807171e+02 
-9.630579e+01 -2.368143e+01 -7.970720e+02 
-3.196358e+02 1.017303e+02 5.702915e+02 
-1.110482e+02 3.473599e+02 -6.928446e+02 
-6.821227e+02 -1.712075e+02 -4.221963e+02 
-3.273067e+02 -2.168948e+01 -4.841179e+02 
-1.247719e+02 -1.992136e+01 2.641199e+01 
4.107320e+02 2.955891e+02 -6.963417e+02 
-4.683028e+02 8.945217e+02 7.424741e+02 
-4.054697e+02 1.531255e+02 -6.696151e+02 
4.478186e+02 -2.686350e+02 -2.950104e+02 
-8.179960e+02 -6.588030e+02 2.078649e+02 
-1.143027e+02 5.037312e+02 -5.671169e+02 
1.363247e+03 -4.435692e+02 -1.138869e+03 
-2.032749e+02 -4.495977e+02 -4.600404e+01 
1.056995e+03 8.517612e+02 -9.186357e+02 
-2.019615e+01 2.152639e+02 -8.911783e+01 
-2.290189e+02 4.512285e+02 6.950768e+01 
9.017155e+02 -6.353129e+02 -9.410492e+02 
-2.508628e+02 1.791619e+02 -3.482957e+02 
7.077043e+01 1.182690e+01 2.467986e+02 
3.127839e+02 -1.894464e+02 -1.851920e+02 
-4.018220e+02 -2.251303e+02 -4.028269e+02 
-3.550090e+02 -5.965526e+02 -1.682315e+02 
-1.574587e+02 9.375458e+01 3.154354e+02 
5.154066e+01 4.217894e+02 -1.307524e+02 
-3.427548e+02 -2.421540e+01 6.888887e+01 
5.218273e+02 1.269260e+02 5.046861e+02 
-6.973749e+02 1.843001e+02 2.608025e+02 
3.643235e+01 -2.646292e+02 -3.571501e+02 
2.655481e+02 -1.308170e+01 2.147562e+02 
-3.157074e+02 -2.485695e+02 -9.477337e+02 
8.666046e+00 -1.022697e+03 -1.154559e+02 
-3.129671e+02 -6.200171e+02 1.171618e+03 
-8.600798e+02 2.336418e+02 1.056479e+02 
-7.460457e+02 6.173479e+02 3.339024e+02 
-3.165130e+00 5.214020e+02 1.025958e+01 
-5.113997e+02 7.319183e+02 -2.057445e+02 
-4.893571e+02 -4.496801e+02 2.355255e+02 
-5.581918e+01 -1.159785e+03 5.126442e+02 
-3.204153e+02 9.624305e+01 -6.720105e+02 
-3.070289e+01 4.371201e+02 1.006704e+03 
2.173017e+02 2.146158e+02 -1.116029e+02 
2.803110e+01 -5.109057e+02 4.941843e+02 
-7.507615e+02 2.845765e+02 7.329212e+02 
3.839463e+02 -4.450296e+02 1.441465e+01 
-7.269365e+02 5.955861e+02 1.548101e+02 
-3.789128e+02 9.351011e+01 2.250478e+02 
-5.225774e+02 3.503827e+02 3.564157e+01 
8.598127e+02 8.365560e+02 -1.221707e+03 
2.531187e+01 -3.357962e+01 -2.276899e+02 
-1.346418e+03 -6.749850e+02 -3.664070e+01 
-2.048702e+02 3.036514e+02 9.015265e+01 
-2.356511e+02 2.131202e+02 4.897884e+02 
-1.112268e+02 1.045932e+02 1.868848e+02 
-3.649507e+02 4.962462e+02 -4.139263e+01 
3.100235e+02 -2.456936e+02 1.561568e+02 
7.533272e+02 -6.144768e+02 -3.685259e+02 
2.785769e+02 7.472266e+02 -3.928192e+02 
5.607135e+02 4.169404e+02 2.721043e+02 
-6.976400e+01 -4.483037e+02 -8.578663e+01 
3.853993e+02 3.668496e+01 -6.065705e+02 
-6.045405e+02 -1.829561e+01 -1.177671e+03 
1.074212e+03 -1.790000e+02 3.442673e+02 
9.659470e+02 -9.460403e+01 -8.802916e+01 
-1.626179e+02 9.309593e+01 3.106778e+02 
1.307126e+02 -4.129069e+02 1.633294e+02 
5.744648e+02 1.529361e+02 -2.293719e+02 
-1.398436e+02 3.484694e+02 -4.495881e+02 
-7.820976e+02 -1.879878e+02 8.134659e+02 
-1.182435e+02 -2.585626e+02 -1.529557e+02 
2.443880e+01 -1.084335e+02 2.955493e+02 
-4.471558e+02 8.651770e+00 -7.931447e+01 
6.779132e+02 7.446383e+02 -2.384925e+02 
7.840099e+02 -1.550184e+02 -2.613607e+02 
-5.668638e+02 7.483406e+01 -6.109399e+02 
4.112561e+02 -4.419499e+01 6.801338e+02 
-6.524592e+02 3.452686e+02 1.209321e+03 
-7.997006e+02 5.536804e+02 2.731710e+02 
5.920371e+02 9.906263e+01 -5.837593e+02 
-8.120188e+02 5.582979e+01 8.508141e+02 
1.506873e+02 -2.419113e+02 -6.324519e+01 
-1.027929e+01 -1.508849e+02 4.255844e+01 
9.515400e+02 -4.056034e+02 -3.609226e+02 
1.846539e+02 8.096410e+01 8.421844e+02 
1.099309e+01 -3.063821e+02 1.164168e+02 
-2.501517e+02 6.288449e+02 -2.048719e+02 
-3.227090e+02 1.111524e+02 -2.408982e+02 
-2.743757e+02 -2.692403e+02 -5.319609e+02 
-2.743501e+01 -6.038502e+02 1.151635e+02 
-8.025303e+02 7.640621e+02 1.375443e+02 
-2.959153e+02 2.719601e+02 5.790678e+02 
-1.122351e+03 6.896640e+02 -4.536623e+02 
-2.286642e+02 7.622064e+02 -6.134794e+02 
-6.112662e+02 8.642080e+02 1.870042e+01 
1.040793e+02 7.354979e+02 4.504528e+02 
-5.298895e+02 -5.551498e+02 -4.286162e+02 
-1.738110e+02 2.274012e+02 4.956709e+02 
-7.935951e+01 -5.636764e+02 6.869482e+01 
3.234055e+02 -6.001223e+02 -1.767369e+02 
-2.999109e+02 -1.332326e+02 2.026400e+02 
-9.122613e+01 3.967202e+02 -6.828701e+02 
1.351735e+02 -1.460752e+02 1.884688e+02 
2.401814e+02 8.288236e+01 -3.930413e+02 
1.212904e+02 3.996492e+02 3.580065e+02 
-6.290069e+02 2.208623e+02 -3.441950e+00 
-3.183815e+01 2.835007e+02 4.014511e+01 
-3.074104e+02 4.850281e+02 4.101440e+02 
6.620255e+02 -5.773538e+01 -1.517128e+02 
-6.364539e+02 3.256818e+02 -1.556425e+02 
-3.091627e+02 -5.950845e+02 7.444913e+02 
-2.435843e+02 -1.977148e+02 1.108185e+03 
1.355133e+02 5.965773e+01 -2.044086e+02 
-7.525367e+02 -5.408832e+02 2.571938e+02 
3.000874e+01 3.563813e+02 -5.908159e+01 
6.541336e+02 -4.887167e+02 -7.094768e+01 
-3.296370e+02 -9.426289e+01 6.885143e+02 
-2.581330e+01 7.504312e+02 1.804117e+01 
1.135133e+02 6.235646e+02 -1.253147e+01 
-2.001394e+02 6.470945e+01 -4.724016e+02 
7.168502e+02 -2.610480e+02 1.267584e+02 
7.886575e+02 -2.934845e+02 -3.354804e+02 
3.666046e+02 -3.732184e+02 -5.177496e+02 
5.095913e+02 -4.205645e+01 -1.217383e+02 
-1.988170e+02 -7.874183e+02 2.646544e+02 
7.288457e+02 4.158453e+02 -4.672141e+01 
2.012395e+02 -9.261517e+02 4.611592e+02 
-3.698751e+01 1.927835e+02 1.510906e+02 
-9.450661e+02 -4.245529e+02 9.586393e+01 
-6.608852e+02 -2.831121e+02 9.852493e+01 
5.289481e+02 6.560092e+02 1.104072e+03 
-2.169341e+02 -3.974407e+02 7.242628e+01 
2.492048e+02 -3.572416e+02 -2.825500e+02 
-5.121961e+02 5.358596e+02 -1.783715e+02 
3.280966e+02 -1.545676e+02 -9.722445e+01 
-8.660872e+01 -1.946406e+02 6.061527e+01 
9.621875e+02 -2.311271e+00 -6.775546e+01 
-9.775770e+02 5.728191e+02 4.283630e+02 
6.127904e+02 -5.798938e+02 -1.365267e+02 
3.943944e+02 1.120838e+03 2.710820e+02 
7.752500e+02 1.005633e+03 5.783163e+02 
-1.054668e+02 -2.466782e+02 -1.975460e+02 
-4.446932e+02 -4.507237e+02 2.128876e+02 
3.152925e+02 3.012184e+02 6.004760e+01 
4.342191e+02 5.594895e+02 7.613270e+02 
3.047703e+02 -1.846332e+02 2.761272e+02 
1.035981e+02 2.134966e+02 3.404216e+02 
-1.026600e+03 7.484694e+02 -8.292490e+02 
4.031709e+02 -1.252159e+03 -4.014631e+02 
-4.051151e+02 -1.064157e+03 -4.482897e+02 
1.099822e+02 -7.657205e+02 -2.820035e+02 
-8.457381e+01 -1.637886e+02 -1.217173e+02 
8.644805e+01 1.281548e+02 1.108106e+02 
3.137081e+01 -3.172089e+01 6.560623e+02 
-5.011289e+02 -3.332276e+02 7.164157e+02 
-3.350732e+02 3.988304e+02 -6.014410e+01 
6.508708e+02 -5.445895e+02 6.002424e+01 
3.259799e+02 -3.853760e+02 4.469507e+02 
5.972510e+01 -1.430456e+02 -3.296457e+02 
1.287406e+02 8.171712e+02 -6.188555e+02 
1.919166e+02 3.046828e+02 -2.232420e+02 
-2.115406e+02 -1.621860e+02 1.633857e+02 
3.084078e+02 6.470855e+02 1.070257e+01 
-1.534097e+02 -6.740334e+02 2.648503e+02 
-5.393927e+02 4.512858e+02 -2.498279e+02 
3.984409e+02 -3.746503e+02 -5.201757e+02 
2.951913e+02 -4.776680e+02 -8.003723e+02 
-3.186744e+02 2.100452e+02 -5.984338e+02 
5.775479e+02 8.277069e+02 -1.731055e+02 
6.823244e+01 3.013581e+01 -6.596798e+01 
6.426886e+02 6.332292e+01 -5.045891e+01 
-8.920569e+01 4.880208e+02 4.733241e+02 
5.152527e+02 -1.849646e+02 -1.348309e+02 
-2.510146e+01 -3.247023e+02 5.425533e+02 
1.208773e+03 -8.244726e+02 -4.263287e+02 
-1.249745e+02 1.447763e+02 -4.457234e+01 
-2.402451e+02 -5.700408e+02 8.472196e+01 
9.314643e+01 3.152516e+02 -5.648899e+02 
4.493681e+02 -4.508659e+02 8.280441e+02 
1.032318e+02 -6.634483e+02 2.959408e+02 
-8.493682e+01 -1.642762e+03 -1.949672e+03 
1.277392e+02 2.242876e+02 -6.676287e+01 
-1.555338e+02 7.612015e+01 -7.801821e+02 
3.338247e+02 9.537748e+02 -6.710204e+02 
-1.137179e+03 6.738112e+02 -6.638078e+02 
1.319023e+02 9.330211e+00 -9.059092e+01 
1.717717e+02 -3.992420e+01 -8.644715e+02 
-1.954626e+02 -6.857944e+02 -6.282100e+02 
-2.827970e+02 2.570920e+02 -1.358243e+02 
-7.277073e+02 8.934798e+02 -2.159007e+02 
-1.336064e+03 -1.975969e+02 1.418092e+02 
-2.322053e+02 -4.967112e+02 8.156080e+01 
-9.271818e+02 -3.840659e+02 2.261109e+02 
1.123305e+02 -2.913288e+02 5.046979e+02 
-7.093513e+02 -8.529783e+01 4.825956e+01 
-2.247220e+02 -8.967828e+01 9.120256e+02 
-7.885447e+02 6.217447e+02 2.927697e+02 
-1.325820e+03 -5.554958e+02 7.837693e+02 
-1.431697e+02 2.027848e+01 8.250453e+02 
-4.926684e+02 3.750548e+02 1.633756e+03 
9.438553e+02 9.211605e+01 5.589365e+02 
6.761057e+02 -7.963469e+02 1.983011e+02 
-1.071927e+03 -9.842891e+02 5.294572e+02 
-3.694428e+02 2.105682e+02 -4.060451e+02 
7.330151e+02 -3.189579e+02 -3.486123e+02 
0.000000e+00 0.000000e+00 0.000000e+00 
0.000000e+00 0.000000e+00 0.000000e+00 
0.000000e+00 0.000000e+00 0.000000e+00 
0.000000e+00 0.000000e+00 0.000000e+00 
0.000000e+00 0.000000e+00 0.000000e+00 
0.000000e+00 0.000000e+00 0.000000e+00 
0.000000e+00 0.000000e+00 0.000000e+00 
0.000000e+00 0.000000e+00 0.000000e+00 
0.000000e+00 0.000000e+00 0.000000e+00 
0.000000e+00 0.000000e+00 0.000000e+00 
0.000000e+00 0.000000e+00 0.000000e+00 
0.000000e+00 0.000000e+00 0.000000e+00 
0.000000e+00 0.000000e+00 0.000000e+00 
0.000000e+00 0.000000e+00 0.000000e+00 
0.000000e+00 0.000000e+00 0.000000e+00 
0.000000e+00 0.000000e+00 0.000000e+00 
0.000000e+00 0.000000e+00 0.000000e+00 
0.000000e+00 0.000000e+00 0.000000e+00 
0.000000e+00 0.000000e+00 0.000000e+00 
0.000000e+00 0.000000e+00 0.000000e+00 
0.000000e+00 0.000000e+00 0.000000e+00 
0.000000e+00 0.000000e+00 0.000000e+00 
0.000000e+00 0.000000e+00 0.000000e+00 
0.000000e+00 0.000000e+00 0.000000e+00 
0.000000e+00 0.000000e+00 0.000000e+00 
0.000000e+00 0.000000e+00 0.000000e+00 
0.000000e+00 0.000000e+00 0.000000e+00 
0.000000e+00 0.000000e+00 0.000000e+00 
0.000000e+00 0.000000e+00 0.000000e+00 
0.000000e+00 0.000000e+00 0.000000e+00 
0.000000e+00 0.000000e+00 0.000000e+00 
0.000000e+00 0.000000e+00 0.000000e+00 
0.000000e+00 0.000000e+00 0.000000e+00 
0.000000e+00 0.000000e+00 0.000000e+00 
0.000000e+00 0.000000e+00 0.000000e+00 
0.000000e+00 0.000000e+00 0.000000e+00 
0.000000e+00 0.000000e+00 0.000000e+00 
0.000000e+00 0.000000e+00 0.000000e+00 
0.000000e+00 0.000000e+00 0.000000e+00 
0.000000e+00 0.000000e+00 0.000000e+00 
0.000000e+00 0.000000e+00 0.000000e+00 
0.000000e+00 0.000000e+00 0.000000e+00 
0.000000e+00 0.000000e+00 0.000000e+00 
0.000000e+00 0.000000e+00 0.000000e+00 
0.000000e+00 0.000000e+00 0.000000e+00 
0.000000e+00 0.000000e+00 0.000000e+00 
0.000000e+00 0.000000e+00 0.000000e+00 
0.000000e+00 0.000000e+00 0.000000e+00 
0.000000e+00 0.000000e+00 0.000000e+00 
0.000000e+00 0.000000e+00 0.000000e+00 
0.000000e+00 0.000000e+00 0.000000e+00 
0.000000e+00 0.000000e+00 0.000000e+00 
0.000000e+00 0.000000e+00 0.000000e+00 
0.000000e+00 0.000000e+00 0.000000e+00 
0.000000e+00 0.000000e+00 0.000000e+00 
0.000000e+00 0.000000e+00 0.000000e+00 
0.000000e+00 0.000000e+00 0.000000e+00 
0.000000e+00 0.000000e+00 0.000000e+00 
0.000000e+00 0.000000e+00 0.000000e+00 
0.000000e+00 0.000000e+00 0.000000e+00 
0.000000e+00 0.000000e+00 0.000000e+00 
0.000000e+00 0.000000e+00 0.000000e+00 
0.000000e+00 0.000000e+00 0.000000e+00 
0.000000e+00 0.000000e+00 0.000000e+00 
0.000000e+00 0.000000e+00 0.000000e+00 
0.000000e+00 0.000000e+00 0.000000e+00 
0.000000e+00 0.000000e+00 0.000000e+00 
0.000000e+00 0.000000e+00 0.000000e+00 
0.000000e+00 0.000000e+00 0.000000e+00 
0.000000e+00 0.000000e+00 0.000000e+00 
0.000000e+00 0.000000e+00 0.000000e+00 
0.000000e+00 0.000000e+00 0.000000e+00 
0.000000e+00 0.000000e+00 0.000000e+00 
0.000000e+00 0.000000e+00 0.000000e+00 
0.000000e+00 0.000000e+00 0.000000e+00 
0.000000e+00 0.000000e+00 0.000000e+00 
0.000000e+00 0.000000e+00 0.000000e+00 
0.000000e+00 0.000000e+00 0.000000e+00 
0.000000e+00 0.000000e+00 0.000000e+00 
0.000000e+00 0.000000e+00 0.000000e+00 
0.000000e+00 0.000000e+00 0.000000e+00 
0.000000e+00 0.000000e+00 0.000000e+00 
0.000000e+00 0.000000e+00 0.000000e+00 
0.000000e+00 0.000000e+00 0.000000e+00 
0.000000e+00 0.000000e+00 0.000000e+00 
0.000000e+00 0.000000e+00 0.000000e+00 
0.000000e+00 0.000000e+00 0.000000e+00 
0.000000e+00 0.000000e+00 0.000000e+00 
0.000000e+00 0.000000e+00 0.000000e+00 
0.000000e+00 0.000000e+00 0.000000e+00 
0.000000e+00 0.000000e+00 0.000000e+00 
0.000000e+00 0.000000e+00 0.000000e+00 
0.000000e+00 0.000000e+00 0.000000e+00 
0.000000e+00 0.000000e+00 0.000000e+00 
0.000000e+00 0.000000e+00 0.000000e+00 
0.000000e+00 0.000000e+00 0.000000e+00 
0.000000e+00 0.000000e+00 0.000000e+00 
0.000000e+00 0.000000e+00 0.000000e+00 
0.000000e+00 0.000000e+00 0.000000e+00 
0.000000e+00 0.000000e+00 0.000000e+00 
0.000000e+00 0.000000e+00 0.000000e+00 
0.000000e+00 0.000000e+00 0.000000e+00 
0.000000e+00 0.000000e+00 0.000000e+00 
0.000000e+00 0.000000e+00 0.000000e+00 
0.000000e+00 0.000000e+00 0.000000e+00 
0.000000e+00 0.000000e+00 0.000000e+00 
0.000000e+00 0.000000e+00 0.000000e+00 
0.000000e+00 0.000000e+00 0.000000e+00 
0.000000e+00 0.000000e+00 0.000000e+00 
0.000000e+00 0.000000e+00 0.000000e+00 
0.000000e+00 0.000000e+00 0.000000e+00 
0.000000e+00 0.000000e+00 0.000000e+00 
0.000000e+00 0.000000e+00 0.000000e+00 
0.000000e+00 0.000000e+00 0.000000e+00 
0.000000e+00 0.000000e+00 0.000000e+00 
0.000000e+00 0.000000e+00 0.000000e+00 
0.000000e+00 0.000000e+00 0.000000e+00 
0.000000e+00 0.000000e+00 0.000000e+00 
0.000000e+00 0.000000e+00 0.000000e+00 
0.000000e+00 0.000000e+00 0.000000e+00 
0.000000e+00 0.000000e+00 0.000000e+00 
0.000000e+00 0.000000e+00 0.000000e+00 
0.000000e+00 0.000000e+00 0.000000e+00 
0.000000e+00 0.000000e+00 0.000000e+00 
0.000000e+00 0.000000e+00 0.000000e+00 
0.000000e+00 0.000000e+00 0.000000e+00 
0.000000e+00 0.000000e+00 0.000000e+00 
0.000000e+00 0.000000e+00 0.000000e+00 
0.000000e+00 0.000000e+00 0.000000e+00 
0.000000e+00 0.000000e+00 0.000000e+00 
0.000000e+00 0.000000e+00 0.000000e+00 
0.000000e+00 0.000000e+00 0.000000e+00 
0.000000e+00 0.000000e+00 0.000000e+00 
0.000000e+00 0.000000e+00 0.000000e+00 
0.000000e+00 0.000000e+00 0.000000e+00 
0.000000e+00 0.000000e+00 0.000000e+00 
0.000000e+00 0.000000e+00 0.000000e+00 
0.000000e+00 0.000000e+00 0.000000e+00 
0.000000e+00 0.000000e+00 0.000000e+00 
0.000000e+00 0.000000e+00 0.000000e+00 
0.000000e+00 0.000000e+00 0.000000e+00 
0.000000e+00 0.000000e+00 0.000000e+00 
0.000000e+00 0.000000e+00 0.000000e+00 
0.000000e+00 0.000000e+00 0.000000e+00 
0.000000e+00 0.000000e+00 0.000000e+00 
0.000000e+00 0.000000e+00 0.000000e+00 
0.000000e+00 0.000000e+00 0.000000e+00 
0.000000e+00 0.000000e+00 0.000000e+00 
0.000000e+00 0.000000e+00 0.000000e+00 
0.000000e+00 0.000000e+00 0.000000e+00 
0.000000e+00 0.000000e+00 0.000000e+00 
0.000000e+00 0.000000e+00 0.000000e+00 
0.000000e+00 0.000000e+00 0.000000e+00 
0.000000e+00 0.000000e+00 0.000000e+00 
0.000000e+00 0.000000e+00 0.000000e+00 
0.000000e+00 0.000000e+00 0.000000e+00 
0.000000e+00 0.000000e+00 0.000000e+00 
0.000000e+00 0.000000e+00 0.000000e+00 
0.000000e+00 0.000000e+00 0.000000e+00 
0.000000e+00 0.000000e+00 0.000000e+00 
0.000000e+00 0.000000e+00 0.000000e+00 
0.000000e+00 0.000000e+00 0.000000e+00 
0.000000e+00 0.000000e+00 0.000000e+00 
0.000000e+00 0.000000e+00 0.000000e+00 
0.000000e+00 0.000000e+00 0.000000e+00 
0.000000e+00 0.000000e+00 0.000000e+00 
0.000000e+00 0.000000e+00 0.000000e+00 
0.000000e+00 0.000000e+00 0.000000e+00 
0.000000e+00 0.000000e+00 0.000000e+00 
0.000000e+00 0.000000e+00 0.000000e+00 
0.000000e+00 0.000000e+00 0.000000e+00 
0.000000e+00 0.000000e+00 0.000000e+00 
0.000000e+00 0.000000e+00 0.000000e+00 
0.000000e+00 0.000000e+00 0.000000e+00 
0.000000e+00 0.000000e+00 0.000000e+00 
0.000000e+00 0.000000e+00 0.000000e+00 
0.000000e+00 0.000000e+00 0.000000e+00 
0.000000e+00 0.000000e+00 0.000000e+00 
0.000000e+00 0.000000e+00 0.000000e+00 
0.000000e+00 0.000000e+00 0.000000e+00 
0.000000e+00 0.000000e+00 0.000000e+00 
0.000000e+00 0.000000e+00 0.000000e+00 
0.000000e+00 0.000000e+00 0.000000e+00 
0.000000e+00 0.000000e+00 0.000000e+00 
0.000000e+00 0.000000e+00 0.000000e+00 
0.000000e+00 0.000000e+00 0.000000e+00 
0.000000e+00 0.000000e+00 0.000000e+00 
0.000000e+00 0.000000e+00 0.000000e+00 
0.000000e+00 0.000000e+00 0.000000e+00 
0.000000e+00 0.000000e+00 0.000000e+00 
0.000000e+00 0.000000e+00 0.000000e+00 
0.000000e+00 0.000000e+00 0.000000e+00 
0.000000e+00 0.000000e+00 0.000000e+00 
0.000000e+00 0.000000e+00 0.000000e+00 
0.000000e+00 0.000000e+00 0.000000e+00 
0.000000e+00 0.000000e+00 0.000000e+00 
0.000000e+00 0.000000e+00 0.000000e+00 
0.000000e+00 0.000000e+00 0.000000e+00 
0.000000e+00 0.000000e+00 0.000000e+00 
0.000000e+00 0.000000e+00 0.000000e+00 
0.000000e+00 0.000000e+00 0.000000e+00 
0.000000e+00 0.000000e+00 0.000000e+00 
0.000000e+00 0.000000e+00 0.000000e+00 
0.000000e+00 0.000000e+00 0.000000e+00 
0.000000e+00 0.000000e+00 0.000000e+00 
0.000000e+00 0.000000e+00 0.000000e+00 
0.000000e+00 0.000000e+00 0.000000e+00 
0.000000e+00 0.000000e+00 0.000000e+00 
0.000000e+00 0.000000e+00 0.000000e+00 
0.000000e+00 0.000000e+00 0.000000e+00 
0.000000e+00 0.000000e+00 0.000000e+00 
0.000000e+00 0.000000e+00 0.000000e+00 
0.000000e+00 0.000000e+00 0.000000e+00 
0.000000e+00 0.000000e+00 0.000000e+00 
0.000000e+00 0.000000e+00 0.000000e+00 
0.000000e+00 0.000000e+00 0.000000e+00 
0.000000e+00 0.000000e+00 0.000000e+00 
0.000000e+00 0.000000e+00 0.000000e+00 
0.000000e+00 0.000000e+00 0.000000e+00 
0.000000e+00 0.000000e+00 0.000000e+00 
0.000000e+00 0.000000e+00 0.000000e+00 
0.000000e+00 0.000000e+00 0.000000e+00 
0.000000e+00 0.000000e+00 0.000000e+00 
0.000000e+00 0.000000e+00 0.000000e+00 
0.000000e+00 0.000000e+00 0.000000e+00 
0.000000e+00 0.000000e+00 0.000000e+00 
0.000000e+00 0.000000e+00 0.000000e+00 
0.000000e+00 0.000000e+00 0.000000e+00 
0.000000e+00 0.000000e+00 0.000000e+00 
0.000000e+00 0.000000e+00 0.000000e+00 
0.000000e+00 0.000000e+00 0.000000e+00 
0.000000e+00 0.000000e+00 0.000000e+00 
0.000000e+00 0.000000e+00 0.000000e+00 
0.000000e+00 0.000000e+00 0.000000e+00 
0.000000e+00 0.000000e+00 0.000000e+00 
0.000000e+00 0.000000e+00 0.000000e+00 
0.000000e+00 0.000000e+00 0.000000e+00 
0.000000e+00 0.000000e+00 0.000000e+00 
0.000000e+00 0.000000e+00 0.000000e+00 
0.000000e+00 0.000000e+00 0.000000e+00 
0.000000e+00 0.000000e+00 0.000000e+00 
0.000000e+00 0.000000e+00 0.000000e+00 
0.000000e+00 0.000000e+00 0.000000e+00 
0.000000e+00 0.000000e+00 0.000000e+00 
0.000000e+00 0.000000e+00 0.000000e+00 
0.000000e+00 0.000000e+00 0.000000e+00 
0.000000e+00 0.000000e+00 0.000000e+00 
0.000000e+00 0.000000e+00 0.000000e+00 
0.000000e+00 0.000000e+00 0.000000e+00 
0.000000e+00 0.000000e+00 0.000000e+00 
0.000000e+00 0.000000e+00 0.000000e+00 
0.000000e+00 0.000000e+00 0.000000e+00 
0.000000e+00 0.000000e+00 0.000000e+00 
0.000000e+00 0.000000e+00 0.000000e+00 
0.000000e+00 0.000000e+00 0.000000e+00 
0.000000e+00 0.000000e+00 0.000000e+00 
0.000000e+00 0.000000e+00 0.000000e+00 
0.000000e+00 0.000000e+00 0.000000e+00 
0.000000e+00 0.000000e+00 0.000000e+00 
0.000000e+00 0.000000e+00 0.000000e+00 
0.000000e+00 0.000000e+00 0.000000e+00 
0.000000e+00 0.000000e+00 0.000000e+00 
0.000000e+00 0.000000e+00 0.000000e+00 
0.000000e+00 0.000000e+00 0.000000e+00 
0.000000e+00 0.000000e+00 0.000000e+00 
0.000000e+00 0.000000e+00 0.000000e+00 
0.000000e+00 0.000000e+00 0.000000e+00 
0.000000e+00 0.000000e+00 0.000000e+00 
0.000000e+00 0.000000e+00 0.000000e+00 
0.000000e+00 0.000000e+00 0.000000e+00 
0.000000e+00 0.000000e+00 0.000000e+00 
0.000000e+00 0.000000e+00 0.000000e+00 
0.000000e+00 0.000000e+00 0.000000e+00 
0.000000e+00 0.000000e+00 0.000000e+00 
0.000000e+00 0.000000e+00 0.000000e+00 
0.000000e+00 0.000000e+00 0.000000e+00 
0.000000e+00 0.000000e+00 0.000000e+00 