# vtk DataFile Version 3.1
*description-name of input file* step:901 
ASCII
DATASET UNSTRUCTURED_GRID
POINTS 1605 FLOAT
-7.146393e-09 -5.903906e-09 -4.481799e-11
-7.523090e-09 -4.609823e-09 -6.004789e-10
-6.263683e-09 -5.012739e-09 -7.551747e-10
-7.773231e-09 -4.048460e-09 1.933425e-09
-5.333135e-09 -5.993341e-09 -6.507549e-11
1.224302e-08 7.212148e-09 -1.065794e-08
1.366883e-08 7.390296e-09 -1.074904e-08
1.298333e-08 6.099736e-09 -1.197052e-08
-5.983534e-09 -6.134268e-09 9.227604e-10
-6.311077e-09 -2.987089e-09 8.633763e-10
-4.355438e-09 -4.639931e-09 -1.052065e-09
-6.248086e-09 -2.899357e-09 -5.414278e-10
-5.528553e-09 -5.489918e-09 2.410881e-09
-5.860058e-09 -3.807045e-09 1.917021e-09
-5.094157e-09 -3.747518e-09 -1.504549e-09
-7.306260e-09 -4.251623e-09 3.216163e-09
-3.271526e-09 -5.370626e-09 2.836381e-10
-6.505316e-09 -1.185910e-09 1.997323e-10
-5.523268e-09 -1.437854e-09 -1.024377e-09
-3.919892e-09 -4.228755e-09 -3.545820e-09
-5.084965e-09 -2.769906e-09 -2.858184e-09
-4.088941e-09 -2.185243e-09 -3.910278e-09
-6.348254e-09 -2.611528e-09 2.429347e-09
-5.855478e-09 1.922895e-10 -2.489677e-09
-6.367220e-09 1.955578e-10 -1.081504e-09
-3.529333e-09 -4.638333e-09 1.912263e-09
-7.214077e-09 -1.653052e-09 1.218284e-09
-5.795582e-09 -3.708996e-09 4.217059e-09
-4.136749e-09 -2.034278e-09 -3.601093e-10
-7.808908e-09 -2.248007e-09 3.306391e-09
-2.423951e-09 -4.734303e-09 -2.170469e-09
-2.736385e-09 -3.094089e-09 -3.679062e-09
-2.186527e-09 -4.136418e-09 -3.223131e-09
-3.523480e-09 -3.428625e-09 -6.292398e-10
-5.971145e-09 -2.571761e-09 4.333863e-09
-4.227673e-09 -1.016968e-09 -2.281357e-09
-6.310232e-09 -6.126475e-10 2.125770e-09
-4.726601e-09 -3.494265e-10 4.874330e-10
-3.136113e-09 -1.985893e-09 -1.942546e-09
-4.087272e-09 -4.074584e-09 3.753539e-09
-4.956138e-09 2.843549e-10 -7.857732e-10
-3.957522e-09 1.030602e-09 -4.897408e-09
-4.016408e-09 3.606683e-10 -3.011385e-09
-4.939814e-09 1.138228e-09 -3.540731e-09
-4.162248e-09 -2.572969e-09 2.150435e-09
-1.660512e-09 -3.197643e-09 -6.172827e-10
-4.357906e-09 2.619293e-09 -4.089260e-09
-3.033334e-09 -1.635110e-09 -3.183329e-09
-3.229308e-09 -5.323201e-11 -3.018360e-09
-1.686415e-09 -1.754783e-09 -3.473823e-09
-3.456674e-09 3.342100e-10 -9.751167e-10
-3.034623e-09 -2.052784e-09 2.232901e-10
-3.340386e-09 2.435145e-10 -4.764994e-09
-1.849279e-09 -2.275828e-09 -1.752144e-09
-3.984541e-09 -3.734430e-10 8.245388e-09
-2.253124e-09 -1.717862e-09 7.565991e-09
-1.800688e-09 9.710203e-11 7.382541e-09
-1.508501e-09 4.030199e-10 -4.125192e-09
-5.839037e-09 -3.267538e-09 5.882757e-09
-4.094186e-09 2.210438e-09 -2.342299e-09
-3.656203e-09 -2.921163e-09 3.676282e-09
-4.410732e-09 -4.337268e-10 2.536987e-09
-3.847133e-09 -1.474266e-09 1.212775e-09
-5.384634e-09 2.219270e-09 -1.715327e-10
-4.655770e-09 7.340081e-10 1.295978e-09
-6.386852e-09 1.863548e-09 1.759115e-09
-4.607857e-09 -4.504232e-09 5.658907e-09
-4.799521e-09 -3.677886e-09 6.974769e-09
-6.120327e-09 -1.651868e-09 6.656597e-09
-1.992626e-09 1.756186e-09 1.962790e-09
4.935959e-11 2.430518e-09 3.592416e-09
-1.070097e-09 1.704647e-09 7.053428e-10
-4.556448e-09 6.988626e-10 -1.188351e-09
-3.180979e-09 -4.436300e-09 5.354143e-09
1.069034e-09 2.206682e-10 3.687915e-09
8.708714e-10 1.110549e-09 4.271948e-09
2.889176e-11 6.930109e-10 5.548567e-09
-5.342960e-09 3.303464e-09 1.089432e-09
-4.792699e-09 -1.622507e-09 5.509656e-09
-1.124072e-09 2.028877e-11 -1.368512e-09
-4.463624e-09 -2.310970e-09 4.625614e-09
-3.436134e-09 1.969889e-10 5.746007e-10
-2.225016e-09 -5.363541e-10 -1.049762e-10
-5.839812e-09 2.580698e-09 3.911672e-09
-2.383141e-09 -5.115215e-09 3.619439e-09
-2.891037e-09 2.645199e-09 -3.253939e-09
-2.236430e-09 -3.763950e-09 2.651286e-09
-5.752996e-09 -4.976051e-10 5.399996e-09
-2.465288e-09 1.564444e-09 -2.159999e-09
-4.248563e-09 -1.752678e-12 4.774915e-09
-2.819983e-09 -2.842041e-09 4.863556e-09
-5.772238e-09 -6.630374e-10 4.247040e-09
-3.277413e-09 -9.735649e-10 4.197999e-09
-6.537385e-10 -1.390502e-09 1.807493e-10
-4.329040e-09 3.474805e-09 2.461489e-09
-3.268206e-09 2.923935e-09 -9.120660e-10
-4.252179e-10 -1.570392e-09 -3.292801e-09
2.160980e-10 -2.780482e-09 -2.771790e-09
-4.031108e-09 -2.419584e-09 7.816785e-09
-5.574593e-09 -1.358675e-09 7.728969e-09
-5.499228e-09 2.624542e-10 7.671123e-09
9.698269e-10 2.185616e-09 3.108061e-09
-3.441052e-09 1.266632e-09 9.153155e-10
-3.533087e-09 2.846069e-09 5.907401e-10
-6.358147e-09 1.336372e-09 4.817020e-09
-4.590156e-09 5.164857e-11 3.729958e-09
-3.723167e-09 -2.609067e-09 6.277494e-09
-1.156464e-10 -6.121322e-11 -3.267233e-09
-1.458276e-09 -2.741225e-09 3.564420e-09
-5.019090e-09 1.257443e-09 6.711367e-09
-3.560998e-09 6.853659e-10 3.393696e-09
-4.274123e-09 2.195013e-09 5.423598e-09
-4.251757e-09 1.786674e-09 3.187808e-09
-3.187049e-10 -3.860651e-09 2.668268e-09
8.139633e-10 -3.652133e-09 4.166328e-09
-3.984848e-09 2.276546e-09 1.840419e-09
3.013003e-10 -2.031672e-09 -6.120039e-10
-3.923236e-09 2.812053e-09 4.150958e-09
1.362733e-09 -1.102528e-09 -3.029835e-09
-7.636362e-10 -3.914352e-09 6.134449e-09
-7.572215e-10 -6.191323e-10 1.218953e-09
-2.352592e-09 -3.236989e-09 6.591703e-09
-1.866161e-09 -2.117023e-09 5.438700e-09
-1.580070e-09 -2.374011e-10 2.925438e-09
-1.366825e-09 -1.727319e-09 4.288122e-09
-2.538139e-09 1.380483e-09 3.769971e-09
1.574659e-09 -8.460026e-10 -1.335334e-09
5.761617e-10 8.365988e-10 -1.280927e-09
1.460933e-09 -6.092481e-10 5.947339e-09
-3.226596e-09 1.146820e-09 6.033365e-09
7.710273e-10 6.230412e-10 -3.073308e-09
1.043624e-09 -4.451073e-09 2.841766e-09
-8.042192e-10 -6.481856e-10 4.009354e-09
8.222789e-10 -1.149962e-09 -1.698530e-10
5.728744e-10 -3.697962e-09 5.462158e-09
-3.125752e-09 7.645553e-10 7.431318e-09
-2.547789e-09 2.153498e-09 5.700628e-09
-1.137384e-09 -1.798465e-09 6.610857e-09
2.207142e-09 -4.635034e-09 3.558541e-09
1.921671e-09 -3.648595e-09 2.328876e-09
-1.835875e-10 -1.458065e-09 2.727405e-09
-1.633785e-10 -2.876466e-09 6.751788e-09
1.320538e-09 -1.573019e-09 1.660010e-09
1.883982e-09 -2.094544e-10 -2.229420e-09
-9.339084e-10 1.731002e-09 3.475560e-09
-7.354223e-10 -1.555490e-09 7.896009e-09
1.613455e-09 4.525211e-10 -2.972799e-11
2.248564e-09 -3.354386e-09 4.670960e-09
2.867247e-09 -4.064982e-09 3.532971e-09
1.977156e-09 1.419348e-09 -1.221474e-09
4.740390e-10 -2.375641e-09 6.111848e-09
-1.666388e-09 6.548054e-10 5.198734e-09
2.834013e-09 -1.652779e-10 7.099774e-10
2.606142e-09 3.151674e-10 -3.904872e-09
1.724289e-09 -2.606679e-09 4.888542e-09
3.577255e-09 -2.801362e-09 2.346674e-09
3.283546e-09 6.686645e-10 -2.168129e-09
2.674810e-09 2.326951e-09 -2.436261e-09
2.694351e-09 2.070827e-09 -3.978192e-09
3.557431e-09 8.249561e-10 -3.960529e-09
4.014393e-09 1.542455e-09 -5.312886e-09
1.345802e-09 -1.436368e-09 4.267790e-09
6.735685e-10 -9.429240e-10 7.248676e-09
2.549081e-09 -6.222378e-10 1.992227e-09
1.132226e-09 1.524028e-09 6.132134e-10
2.180276e-09 1.711425e-09 -3.375643e-10
4.579145e-09 1.586596e-09 -3.496924e-09
2.600436e-10 1.252105e-09 7.563091e-09
1.410517e-09 1.205192e-09 2.005173e-09
2.743722e-09 -2.218268e-09 3.417958e-09
2.182938e-09 -2.192325e-10 3.404534e-09
3.713732e-09 -4.961371e-11 1.812489e-09
4.393126e-09 2.789042e-09 -3.372747e-09
3.100137e-09 8.386973e-10 -7.539553e-10
3.209198e-09 1.638377e-09 -1.681573e-09
4.809955e-09 2.546395e-09 -4.972587e-09
3.217297e-09 9.998956e-10 7.920021e-10
5.114302e-09 1.990710e-09 -5.930185e-09
5.387490e-09 1.585964e-09 -4.690962e-09
3.644312e-09 1.022841e-10 -2.271967e-10
3.174007e-09 8.147835e-10 2.611951e-09
6.286609e-09 1.479321e-09 -6.014872e-09
5.688527e-09 2.789830e-09 -3.975981e-09
7.056634e-09 3.057788e-09 -6.770167e-09
6.608586e-09 2.153832e-09 -5.022694e-09
7.259324e-09 2.215199e-09 -6.773563e-09
6.343294e-09 3.656160e-09 -4.588319e-09
7.546357e-09 3.425063e-09 -5.739761e-09
8.622800e-09 2.766205e-09 -5.888813e-09
8.421591e-09 3.017327e-09 -7.053736e-09
8.467421e-09 4.133253e-09 -6.971357e-09
9.455067e-09 3.226931e-09 -6.837304e-09
1.030486e-08 4.317496e-09 -7.772914e-09
1.021088e-08 4.830814e-09 -7.783686e-09
9.469368e-09 3.984989e-09 -6.137523e-09
1.103891e-08 4.079023e-09 -6.951565e-09
1.009472e-08 4.821532e-09 -6.511095e-09
1.140350e-08 5.026652e-09 -8.515708e-09
1.129216e-08 6.303668e-09 -7.653861e-09
1.113975e-08 5.294170e-09 -6.717438e-09
1.264464e-08 4.842005e-09 -8.392877e-09
1.136487e-08 6.617151e-09 -9.986579e-09
1.159527e-08 5.945914e-09 -1.045115e-08
1.119126e-08 6.022640e-09 -8.939385e-09
1.211072e-08 5.101737e-09 -9.093431e-09
1.171010e-08 5.813240e-09 -7.161353e-09
1.285283e-08 5.705623e-09 -8.025530e-09
1.341660e-08 5.077077e-09 -9.199928e-09
1.388137e-08 5.538844e-09 -1.058047e-08
1.205630e-08 6.957534e-09 -8.720761e-09
1.426826e-08 6.632789e-09 -1.013040e-08
1.364629e-08 6.194305e-09 -8.778279e-09
1.350787e-08 7.574150e-09 -9.162295e-09
2.078716e-09 1.565386e-09 -7.795190e-10
-4.415315e-09 -3.048735e-09 7.395777e-09
7.157979e-09 2.636493e-09 -6.771865e-09
7.301496e-09 3.241425e-09 -6.254964e-09
1.261317e-08 6.655942e-09 -1.131423e-08
2.174762e-09 1.261962e-09 7.026078e-10
-4.206406e-09 3.092824e-10 -8.804449e-10
8.084579e-09 3.095634e-09 -5.814287e-09
4.668061e-10 1.545904e-10 7.405883e-09
-2.739552e-10 4.284438e-10 -1.324720e-09
-3.182711e-09 -1.019563e-09 -2.480453e-09
7.739112e-09 3.037557e-09 -6.911951e-09
-4.517000e-09 1.674333e-09 -2.941515e-09
-5.521311e-09 1.298778e-09 1.527547e-09
-3.151849e-11 1.420776e-09 3.873754e-09
1.403367e-09 -1.022808e-09 5.107564e-09
1.025787e-08 4.574155e-09 -7.778300e-09
-4.507024e-09 -3.988137e-09 -2.525185e-09
-3.758968e-09 2.561308e-09 1.215579e-09
-3.238093e-09 -2.881602e-09 4.269919e-09
-5.864906e-09 2.583506e-09 1.424274e-09
1.108933e-08 4.686596e-09 -6.834501e-09
1.444677e-10 9.725578e-10 6.555829e-09
2.302577e-10 3.876928e-10 -2.274080e-09
4.601155e-10 1.770533e-09 3.932182e-09
-4.628161e-09 -1.966738e-09 5.067635e-09
-1.662218e-09 -2.429124e-09 4.501560e-09
-3.931064e-09 3.160437e-09 1.526115e-09
-2.211400e-09 -2.424436e-09 -3.576442e-09
1.332608e-08 6.745016e-09 -1.135978e-08
[...]
POINT_DATA 1605
VECTORS vector_force float
-2.639704e+02 7.312736e+02 -7.028468e+02 
1.571595e+02 4.670386e+02 -1.091911e+03 
5.694756e+02 6.185559e+02 -1.538747e+02 
-2.586454e+02 4.097652e+02 -4.056731e+02 
2.719610e+01 3.219195e+02 -3.263657e+02 
-7.516238e+02 8.841656e+02 6.388143e+02 
4.835377e+01 6.515420e+02 6.130557e+02 
-2.145722e+02 1.891893e+02 1.909868e+02 
-8.062464e+02 1.043022e+03 -3.530655e+02 
1.476255e+02 -1.257854e+02 1.161535e+02 
7.946712e+02 -9.420952e+01 -3.570229e+02 
-3.392643e+02 -6.976706e+02 3.191356e+02 
2.013913e+01 1.051246e+02 -1.017582e+02 
2.021712e+02 2.175805e+02 -3.883780e+02 
4.738516e+02 -5.394578e+02 -3.911093e+02 
-9.842002e+02 -3.406762e+02 5.300811e+02 
-6.040421e+01 2.191143e+02 1.328155e+01 
7.762710e+02 -2.989570e+02 -5.823722e+02 
3.673268e+01 -3.887916e+02 -4.395795e+02 
-1.472302e+02 -7.082677e+01 -3.928091e+02 
3.886337e+02 1.015874e+03 4.799163e+02 
1.447606e+03 1.410263e+03 9.848155e+02 
2.829669e+02 3.063411e+02 -2.340935e+02 
4.541709e+00 -1.307030e+03 1.751879e+02 
1.360717e+02 -6.749240e+02 -5.055130e+02 
2.362937e+02 2.996980e+02 -4.939136e+01 
5.117506e+02 3.265115e+02 -5.926794e+02 
8.018640e+01 -3.978257e+01 -1.532189e+02 
1.330698e+02 5.413433e+01 -5.211243e+02 
2.286266e+01 4.591406e+02 1.174937e+02 
-2.341773e+02 3.742777e+02 7.589752e+02 
7.578541e+01 -1.841877e+02 -1.210575e+02 
4.395202e+02 1.221881e+03 -2.214148e+02 
3.948818e+02 -3.090871e+02 -2.300893e+02 
-3.656159e+02 -3.212286e+02 1.617993e+02 
5.193883e+02 -2.583130e+02 -2.245965e+02 
3.512806e+02 -2.033295e+02 -3.992909e+02 
5.197660e+02 -4.138244e+02 -1.493407e+02 
-1.234022e+02 2.580289e+02 -1.414359e+02 
-4.693519e+02 7.552489e+02 6.244112e+02 
6.128460e+01 -1.068402e+03 1.218093e+02 
-2.650576e+02 5.343196e+02 -7.666329e+01 
-3.742103e+02 7.686095e+02 -5.204201e+02 
-4.428578e+02 5.704940e+02 -5.026048e+02 
-1.915282e+01 -3.770518e+02 3.911156e+01 
3.141766e+02 1.714264e+02 -3.248300e+02 
-1.058820e+03 3.795915e+02 -5.478954e+02 
3.698507e+02 8.047441e+01 1.288767e+02 
1.468292e+02 1.187618e+02 -3.493642e+02 
2.489288e+02 -5.591313e+02 -2.541485e+02 
-2.706019e+02 2.701510e+01 -5.564962e+02 
5.629684e+01 -4.115941e+00 -5.428381e+02 
-1.134305e+03 -2.142950e+02 1.511107e+02 
4.305426e+02 -4.469507e+02 -3.798189e+02 
-2.757087e+02 2.321758e+02 1.360025e+02 
2.580571e+02 6.440682e+02 9.539656e+01 
-1.487290e+01 1.348091e+02 -2.162698e+02 
-4.811045e+02 7.563219e+02 1.283444e+03 
-1.384126e+03 -6.924726e+01 -1.173698e+03 
7.680059e+02 7.861241e+02 2.766558e+02 
-1.050148e+02 1.814375e+02 5.828885e+02 
-2.552780e+02 -2.528008e+02 -1.786235e+02 
6.466365e+02 -2.960452e+02 -4.860189e+01 
5.536554e+02 -6.206837e+02 -1.567147e+02 
-4.670336e+01 6.208642e+02 -4.523972e+02 
4.195110e+02 -8.696174e+01 -5.048243e+02 
-6.614558e+02 -5.545368e+01 7.690492e+02 
-9.185123e+02 -1.177497e+02 -2.733174e+02 
3.600951e+02 -1.474414e+02 -3.233348e+02 
-3.197054e+02 1.201288e+02 -1.425755e+02 
2.912499e+02 -1.344556e+01 -7.198525e+01 
-2.579964e+02 -6.247373e+02 1.410997e+02 
-8.631212e+02 -4.045421e+02 5.182044e+02 
-8.449236e+01 -1.896811e+02 5.838804e+02 
-1.860169e+02 -2.761278e+02 -1.856438e+02 
-3.933783e+02 4.671571e+02 -2.008685e+02 
1.496471e+02 3.591161e+02 -3.669171e+02 
-6.858419e+02 -2.741741e+02 7.784244e+02 
-5.850018e+02 -2.888596e+02 -8.384199e+02 
-2.776529e+01 2.701381e+01 -3.537498e+02 
-4.372578e+02 -1.846486e+02 2.607529e+02 
1.962494e+02 7.538996e+01 -4.202580e+02 
-2.066822e+02 -1.810067e+02 2.539849e+01 
1.092371e+03 -7.289202e+01 2.211857e+01 
6.366797e+02 -4.925474e+02 -2.397835e+02 
-4.721050e+02 2.330737e+02 8.590952e+01 
-1.859928e+02 2.217001e+02 7.236961e+02 
7.367589e+02 -2.115128e+02 2.890796e+00 
-2.591827e+02 -5.711246e+02 -4.613533e+02 
3.704394e+01 -5.042911e+02 -2.557492e+02 
-1.016549e+02 -3.976947e+02 6.729758e+01 
-9.968101e+02 -8.777750e+01 6.574701e+02 
1.284522e+02 -8.056867e+02 -1.546420e+02 
4.965737e+01 4.285027e+02 6.163220e+01 
-5.072571e+02 -1.900831e+02 5.220233e+02 
-5.310177e+02 5.135368e+01 9.420723e+02 
4.534893e+02 -9.772370e+02 5.673284e+02 
1.120415e+03 -3.447074e+02 -7.409909e+02 
-5.598402e+01 2.275353e+01 -5.508695e+02 
7.723199e+01 8.374313e+02 1.937306e+02 
8.372777e+02 4.062320e+02 -3.698471e+02 
1.277491e+02 -3.520378e+02 7.255593e+02 
1.691320e+02 -5.103146e+02 2.501586e+02 
1.427532e+02 -3.345929e+02 4.709060e+02 
4.859732e+02 2.461244e+02 5.881697e+02 
-2.577004e+01 -9.067395e+02 -2.449710e+02 
-1.119107e+02 -8.397747e+02 1.082680e+02 
2.836965e+02 -8.495352e+02 -5.584429e+02 
4.342583e+02 -5.513594e+02 -6.484383e+02 
-1.154711e+00 3.661194e+02 4.131265e+02 
5.354137e+02 2.510831e+02 -2.532384e+02 
2.331518e+02 7.464968e+01 -2.963820e+02 
-4.226899e+02 -6.145490e+02 -1.116504e+02 
-6.347678e+02 -4.511171e+02 -4.250842e+02 
-4.027337e+02 -3.686541e+02 -2.853097e+02 
-8.771719e+02 1.115049e+01 5.097664e+02 
-3.971231e+02 -2.537716e+02 -7.537953e+01 
2.741109e+02 3.574058e+02 -1.111353e+03 
1.982809e+02 1.047906e+00 -3.252845e+02 
6.357671e+02 3.915198e+02 4.586057e+02 
2.805345e+02 4.039222e+02 1.078150e+02 
-9.492216e+02 8.862464e+01 5.373106e+02 
-3.675378e+02 -2.654127e-01 5.411783e+02 
2.519112e+02 5.473271e+02 -3.988024e+01 
-2.744252e+02 4.113721e+02 1.848251e+02 
7.113069e+02 -1.130125e+02 7.348284e+02 
-6.326363e+02 -6.297944e+02 1.679550e+02 
5.675204e+02 -1.686383e+02 -2.918112e+01 
4.730776e+00 1.101807e+01 -1.649567e+02 
2.541158e+02 -3.471783e+02 7.019815e+01 
4.931483e+02 -5.956372e+02 4.070479e+02 
-8.003402e+02 3.543663e+02 -6.432732e+02 
-7.121110e+02 5.856666e+02 -4.940422e+01 
-1.736483e+01 -2.142065e+02 1.947549e+02 
1.032929e+03 -1.139590e+02 -9.490687e+02 
4.396718e+02 -1.890751e+02 -7.507582e+02 
-5.366575e+02 9.058404e+01 1.365458e+03 
-2.017703e+02 9.508443e+01 5.838960e+02 
2.044854e+02 -8.103974e+02 -4.748829e+02 
-4.975848e+02 7.151561e+02 -2.323458e+02 
-2.540772e+02 -8.545910e+00 4.078640e+02 
8.738711e+00 3.235340e+02 -7.744203e+01 
-1.238113e+02 2.065062e+02 2.352020e+02 
2.476364e+02 -6.399749e+02 9.428404e+01 
-4.718475e+00 -2.923495e+02 6.231543e+02 
1.528587e+02 7.865784e+02 3.276820e+02 
2.175644e+02 3.958668e+02 4.431055e+02 
-5.439467e+02 8.337104e+02 1.124203e+02 
-2.764533e+01 -5.059188e+02 1.448028e+02 
5.535189e+02 -3.348256e+02 5.124390e+01 
3.950684e+02 6.770985e+02 -3.843784e+02 
-1.719785e+02 6.866074e+01 -1.445981e+02 
-5.165992e+01 3.479452e+02 -9.007245e+02 
-4.272285e+01 -3.850023e+02 5.735701e+02 
-4.820399e+02 2.961928e+02 -1.032630e+03 
7.218888e+01 3.037193e+02 3.056533e+02 
6.149079e+02 -1.247569e+02 -4.135580e+01 
-1.049671e+03 2.643179e+02 -4.414480e+02 
-3.656331e+02 -2.416327e+02 4.759205e+02 
6.028346e+02 -1.919125e+01 5.026543e+02 
-1.934419e+02 1.553194e+03 -6.207463e+02 
3.852964e+02 1.381719e+02 -4.813843e+01 
6.190159e+01 1.154693e+03 5.340471e+01 
8.095071e+01 -7.822197e+01 9.783142e+01 
-4.650503e+02 -2.342847e+01 -2.313167e+02 
1.033351e+03 -6.221203e+01 -1.073296e+02 
-4.555839e+01 4.495906e+02 2.729304e+01 
9.361685e+02 -2.554102e+02 -4.029296e+02 
-9.251987e+02 5.985461e+02 -1.203308e+02 
2.149023e+02 4.842150e+02 3.099903e+02 
-3.544409e+02 5.901098e+02 1.519492e+01 
7.527490e+02 1.280390e+02 9.749252e+02 
-1.287590e+03 -2.131945e+02 2.224461e+02 
1.570025e+02 -1.051950e+02 -8.967798e+02 
4.119673e+01 -4.534065e+02 2.334411e+02 
1.626717e+02 -2.208044e+02 5.175153e+02 
1.114588e+02 2.112852e+02 5.567121e+01 
1.380929e+02 9.878775e+02 1.206026e+02 
-2.712165e+02 5.018642e+02 -6.343879e+02 
1.104193e+03 5.841717e+01 -1.616366e+03 
-7.515419e+01 5.276945e+01 -6.527988e+02 
-4.414355e+02 5.203987e+02 8.892998e+02 
-5.957312e+02 4.175902e+02 4.936673e+02 
3.658336e+02 3.589098e+02 -2.649422e+02 
-5.856193e+02 -2.848328e+02 4.972382e+02 
9.518653e+01 6.575957e+02 -1.406380e+02 
-2.214651e+03 1.098552e+03 9.364670e+02 
-8.546864e+02 1.076948e+02 -3.299209e+02 
-6.812942e+02 5.244719e+02 -2.825945e+02 
-3.905165e+02 1.275538e+03 1.005003e+03 
1.055398e+03 5.384375e+02 -1.706830e+02 
-2.989317e+02 1.550788e+03 4.217628e+02 
3.365314e+02 -5.813591e+02 1.436347e+03 
6.246748e+01 1.435351e+02 1.323575e+03 
-3.048182e+02 9.627579e+02 4.323567e+02 
1.371036e+03 8.942473e+02 7.306911e+01 
-2.875868e+02 5.670514e+02 7.968902e+02 
-3.521570e+02 5.997981e+01 -3.292287e+02 
4.847904e+01 8.062136e+02 -4.734052e+02 
-3.369660e+01 3.457068e+02 7.007397e+02 
6.699360e+02 5.003716e+02 -3.010955e+02 
3.426819e+01 -3.778913e+02 5.817352e+02 
3.152644e+02 3.361788e+02 -5.240287e+01 
2.428592e+02 -3.513704e+02 2.677896e+02 
-4.603306e+02 1.940604e+02 2.813735e+02 
3.050002e+01 2.265440e+02 -4.363867e+02 
-1.312364e+02 1.137568e+02 1.401190e+01 
1.076256e+02 3.720442e+02 6.424811e+02 
-1.650550e+01 6.086303e+01 4.137310e+02 
-6.396409e+02 -5.707622e+02 7.514375e+01 
-1.129842e+03 -2.261503e+02 1.480997e+02 
-4.623462e+01 1.190602e+02 4.937228e+02 
-1.162033e+03 -5.481658e+02 1.695492e+03 
0.000000e+00 0.000000e+00 0.000000e+00 
0.000000e+00 0.000000e+00 0.000000e+00 
0.000000e+00 0.000000e+00 0.000000e+00 
0.000000e+00 0.000000e+00 0.000000e+00 
0.000000e+00 0.000000e+00 0.000000e+00 
0.000000e+00 0.000000e+00 0.000000e+00 
0.000000e+00 0.000000e+00 0.000000e+00 
0.000000e+00 0.000000e+00 0.000000e+00 
0.000000e+00 0.000000e+00 0.000000e+00 
0.000000e+00 0.000000e+00 0.000000e+00 
0.000000e+00 0.000000e+00 0.000000e+00 
0.000000e+00 0.000000e+00 0.000000e+00 
0.000000e+00 0.000000e+00 0.000000e+00 
0.000000e+00 0.000000e+00 0.000000e+00 
0.000000e+00 0.000000e+00 0.000000e+00 
0.000000e+00 0.000000e+00 0.000000e+00 
0.000000e+00 0.000000e+00 0.000000e+00 
0.000000e+00 0.000000e+00 0.000000e+00 
0.000000e+00 0.000000e+00 0.000000e+00 
0.000000e+00 0.000000e+00 0.000000e+00 
0.000000e+00 0.000000e+00 0.000000e+00 
0.000000e+00 0.000000e+00 0.000000e+00 
0.000000e+00 0.000000e+00 0.000000e+00 
0.000000e+00 0.000000e+00 0.000000e+00 
0.000000e+00 0.000000e+00 0.000000e+00 
0.000000e+00 0.000000e+00 0.000000e+00 
0.000000e+00 0.000000e+00 0.000000e+00 
0.000000e+00 0.000000e+00 0.000000e+00 
0.000000e+00 0.000000e+00 0.000000e+00 
0.000000e+00 0.000000e+00 0.000000e+00 
0.000000e+00 0.000000e+00 0.000000e+00 
0.000000e+00 0.000000e+00 0.000000e+00 
0.000000e+00 0.000000e+00 0.000000e+00 
0.000000e+00 0.000000e+00 0.000000e+00 
0.000000e+00 0.000000e+00 0.000000e+00 
0.000000e+00 0.000000e+00 0.000000e+00 
0.000000e+00 0.000000e+00 0.000000e+00 
0.000000e+00 0.000000e+00 0.000000e+00 
0.000000e+00 0.000000e+00 0.000000e+00 
0.000000e+00 0.000000e+00 0.000000e+00 
0.000000e+00 0.000000e+00 0.000000e+00 
0.000000e+00 0.000000e+00 0.000000e+00 
0.000000e+00 0.000000e+00 0.000000e+00 
0.000000e+00 0.000000e+00 0.000000e+00 
0.000000e+00 0.000000e+00 0.000000e+00 
0.000000e+00 0.000000e+00 0.000000e+00 
0.000000e+00 0.000000e+00 0.000000e+00 
0.000000e+00 0.000000e+00 0.000000e+00 
0.000000e+00 0.000000e+00 0.000000e+00 
0.000000e+00 0.000000e+00 0.000000e+00 
0.000000e+00 0.000000e+00 0.000000e+00 
0.000000e+00 0.000000e+00 0.000000e+00 
0.000000e+00 0.000000e+00 0.000000e+00 
0.000000e+00 0.000000e+00 0.000000e+00 
0.000000e+00 0.000000e+00 0.000000e+00 
0.000000e+00 0.000000e+00 0.000000e+00 
0.000000e+00 0.000000e+00 0.000000e+00 
0.000000e+00 0.000000e+00 0.000000e+00 
0.000000e+00 0.000000e+00 0.000000e+00 
0.000000e+00 0.000000e+00 0.000000e+00 
0.000000e+00 0.000000e+00 0.000000e+00 
0.000000e+00 0.000000e+00 0.000000e+00 
0.000000e+00 0.000000e+00 0.000000e+00 
0.000000e+00 0.000000e+00 0.000000e+00 
0.000000e+00 0.000000e+00 0.000000e+00 
0.000000e+00 0.000000e+00 0.000000e+00 
0.000000e+00 0.000000e+00 0.000000e+00 
0.000000e+00 0.000000e+00 0.000000e+00 
0.000000e+00 0.000000e+00 0.000000e+00 
0.000000e+00 0.000000e+00 0.000000e+00 
0.000000e+00 0.000000e+00 0.000000e+00 
0.000000e+00 0.000000e+00 0.000000e+00 
0.000000e+00 0.000000e+00 0.000000e+00 
0.000000e+00 0.000000e+00 0.000000e+00 
0.000000e+00 0.000000e+00 0.000000e+00 
0.000000e+00 0.000000e+00 0.000000e+00 
0.000000e+00 0.000000e+00 0.000000e+00 
0.000000e+00 0.000000e+00 0.000000e+00 
0.000000e+00 0.000000e+00 0.000000e+00 
0.000000e+00 0.000000e+00 0.000000e+00 
0.000000e+00 0.000000e+00 0.000000e+00 
0.000000e+00 0.000000e+00 0.000000e+00 
0.000000e+00 0.000000e+00 0.000000e+00 
0.000000e+00 0.000000e+00 0.000000e+00 
0.000000e+00 0.000000e+00 0.000000e+00 
0.000000e+00 0.000000e+00 0.000000e+00 
0.000000e+00 0.000000e+00 0.000000e+00 
0.000000e+00 0.000000e+00 0.000000e+00 
0.000000e+00 0.000000e+00 0.000000e+00 
0.000000e+00 0.000000e+00 0.000000e+00 
0.000000e+00 0.000000e+00 0.000000e+00 
0.000000e+00 0.000000e+00 0.000000e+00 
0.000000e+00 0.000000e+00 0.000000e+00 
0.000000e+00 0.000000e+00 0.000000e+00 
0.000000e+00 0.000000e+00 0.000000e+00 
0.000000e+00 0.000000e+00 0.000000e+00 
0.000000e+00 0.000000e+00 0.000000e+00 
0.000000e+00 0.000000e+00 0.000000e+00 
0.000000e+00 0.000000e+00 0.000000e+00 
0.000000e+00 0.000000e+00 0.000000e+00 
0.000000e+00 0.000000e+00 0.000000e+00 
0.000000e+00 0.000000e+00 0.000000e+00 
0.000000e+00 0.000000e+00 0.000000e+00 
0.000000e+00 0.000000e+00 0.000000e+00 
0.000000e+00 0.000000e+00 0.000000e+00 
0.000000e+00 0.000000e+00 0.000000e+00 
0.000000e+00 0.000000e+00 0.000000e+00 
0.000000e+00 0.000000e+00 0.000000e+00 
0.000000e+00 0.000000e+00 0.000000e+00 
0.000000e+00 0.000000e+00 0.000000e+00 
0.000000e+00 0.000000e+00 0.000000e+00 
0.000000e+00 0.000000e+00 0.000000e+00 
0.000000e+00 0.000000e+00 0.000000e+00 
0.000000e+00 0.000000e+00 0.000000e+00 
0.000000e+00 0.000000e+00 0.000000e+00 
0.000000e+00 0.000000e+00 0.000000e+00 
0.000000e+00 0.000000e+00 0.000000e+00 
0.000000e+00 0.000000e+00 0.000000e+00 
0.000000e+00 0.000000e+00 0.000000e+00 
0.000000e+00 0.000000e+00 0.000000e+00 
0.000000e+00 0.000000e+00 0.000000e+00 
0.000000e+00 0.000000e+00 0.000000e+00 
0.000000e+00 0.000000e+00 0.000000e+00 
0.000000e+00 0.000000e+00 0.000000e+00 
0.000000e+00 0.000000e+00 0.000000e+00 
0.000000e+00 0.000000e+00 0.000000e+00 
0.000000e+00 0.000000e+00 0.000000e+00 
0.000000e+00 0.000000e+00 0.000000e+00 
0.000000e+00 0.000000e+00 0.000000e+00 
0.000000e+00 0.000000e+00 0.000000e+00 
0.000000e+00 0.000000e+00 0.000000e+00 
0.000000e+00 0.000000e+00 0.000000e+00 
0.000000e+00 0.000000e+00 0.000000e+00 
0.000000e+00 0.000000e+00 0.000000e+00 
0.000000e+00 0.000000e+00 0.000000e+00 
0.000000e+00 0.000000e+00 0.000000e+00 
0.000000e+00 0.000000e+00 0.000000e+00 
0.000000e+00 0.000000e+00 0.000000e+00 
0.000000e+00 0.000000e+00 0.000000e+00 
0.000000e+00 0.000000e+00 0.000000e+00 
0.000000e+00 0.000000e+00 0.000000e+00 
0.000000e+00 0.000000e+00 0.000000e+00 
0.000000e+00 0.000000e+00 0.000000e+00 
0.000000e+00 0.000000e+00 0.000000e+00 
0.000000e+00 0.000000e+00 0.000000e+00 
0.000000e+00 0.000000e+00 0.000000e+00 
0.000000e+00 0.000000e+00 0.000000e+00 
0.000000e+00 0.000000e+00 0.000000e+00 
0.000000e+00 0.000000e+00 0.000000e+00 
0.000000e+00 0.000000e+00 0.000000e+00 
0.000000e+00 0.000000e+00 0.000000e+00 
0.000000e+00 0.000000e+00 0.000000e+00 
0.000000e+00 0.000000e+00 0.000000e+00 
0.000000e+00 0.000000e+00 0.000000e+00 
0.000000e+00 0.000000e+00 0.000000e+00 
0.000000e+00 0.000000e+00 0.000000e+00 
0.000000e+00 0.000000e+00 0.000000e+00 
0.000000e+00 0.000000e+00 0.000000e+00 
0.000000e+00 0.000000e+00 0.000000e+00 
0.000000e+00 0.000000e+00 0.000000e+00 
0.000000e+00 0.000000e+00 0.000000e+00 
0.000000e+00 0.000000e+00 0.000000e+00 
0.000000e+00 0.000000e+00 0.000000e+00 
0.000000e+00 0.000000e+00 0.000000e+00 
0.000000e+00 0.000000e+00 0.000000e+00 
0.000000e+00 0.000000e+00 0.000000e+00 
0.000000e+00 0.000000e+00 0.000000e+00 
0.000000e+00 0.000000e+00 0.000000e+00 
0.000000e+00 0.000000e+00 0.000000e+00 
0.000000e+00 0.000000e+00 0.000000e+00 
0.000000e+00 0.000000e+00 0.000000e+00 
0.000000e+00 0.000000e+00 0.000000e+00 
0.000000e+00 0.000000e+00 0.000000e+00 
0.000000e+00 0.000000e+00 0.000000e+00 
0.000000e+00 0.000000e+00 0.000000e+00 
0.000000e+00 0.000000e+00 0.000000e+00 
0.000000e+00 0.000000e+00 0.000000e+00 
0.000000e+00 0.000000e+00 0.000000e+00 
0.000000e+00 0.000000e+00 0.000000e+00 
0.000000e+00 0.000000e+00 0.000000e+00 
0.000000e+00 0.000000e+00 0.000000e+00 
0.000000e+00 0.000000e+00 0.000000e+00 
0.000000e+00 0.000000e+00 0.000000e+00 
0.000000e+00 0.000000e+00 0.000000e+00 
0.000000e+00 0.000000e+00 0.000000e+00 
0.000000e+00 0.000000e+00 0.000000e+00 
0.000000e+00 0.000000e+00 0.000000e+00 
0.000000e+00 0.000000e+00 0.000000e+00 
0.000000e+00 0.000000e+00 0.000000e+00 
0.000000e+00 0.000000e+00 0.000000e+00 
0.000000e+00 0.000000e+00 0.000000e+00 
0.000000e+00 0.000000e+00 0.000000e+00 
0.000000e+00 0.000000e+00 0.000000e+00 
0.000000e+00 0.000000e+00 0.000000e+00 
0.000000e+00 0.000000e+00 0.000000e+00 
0.000000e+00 0.000000e+00 0.000000e+00 
0.000000e+00 0.000000e+00 0.000000e+00 
0.000000e+00 0.000000e+00 0.000000e+00 
0.000000e+00 0.000000e+00 0.000000e+00 
0.000000e+00 0.000000e+00 0.000000e+00 
0.000000e+00 0.000000e+00 0.000000e+00 
0.000000e+00 0.000000e+00 0.000000e+00 
0.000000e+00 0.000000e+00 0.000000e+00 
0.000000e+00 0.000000e+00 0.000000e+00 
0.000000e+00 0.000000e+00 0.000000e+00 
0.000000e+00 0.000000e+00 0.000000e+00 
0.000000e+00 0.000000e+00 0.000000e+00 
0.000000e+00 0.000000e+00 0.000000e+00 
0.000000e+00 0.000000e+00 0.000000e+00 
0.000000e+00 0.000000e+00 0.000000e+00 
0.000000e+00 0.000000e+00 0.000000e+00 
0.000000e+00 0.000000e+00 0.000000e+00 
0.000000e+00 0.000000e+00 0.000000e+00 
0.000000e+00 0.000000e+00 0.000000e+00 
0.000000e+00 0.000000e+00 0.000000e+00 
0.000000e+00 0.000000e+00 0.000000e+00 
0.000000e+00 0.000000e+00 0.000000e+00 
0.000000e+00 0.000000e+00 0.000000e+00 
0.000000e+00 0.000000e+00 0.000000e+00 
0.000000e+00 0.000000e+00 0.000000e+00 
0.000000e+00 0.000000e+00 0.000000e+00 
0.000000e+00 0.000000e+00 0.000000e+00 
0.000000e+00 0.000000e+00 0.000000e+00 
0.000000e+00 0.000000e+00 0.000000e+00 
0.000000e+00 0.000000e+00 0.000000e+00 
0.000000e+00 0.000000e+00 0.000000e+00 
0.000000e+00 0.000000e+00 0.000000e+00 
0.000000e+00 0.000000e+00 0.000000e+00 
0.000000e+00 0.000000e+00 0.000000e+00 
0.000000e+00 0.000000e+00 0.000000e+00 
0.000000e+00 0.000000e+00 0.000000e+00 
0.000000e+00 0.000000e+00 0.000000e+00 
0.000000e+00 0.000000e+00 0.000000e+00 
0.000000e+00 0.000000e+00 0.000000e+00 
0.000000e+00 0.000000e+00 0.000000e+00 
0.000000e+00 0.000000e+00 0.000000e+00 
0.000000e+00 0.000000e+00 0.000000e+00 
0.000000e+00 0.000000e+00 0.000000e+00 
0.000000e+00 0.000000e+00 0.000000e+00 
0.000000e+00 0.000000e+00 0.000000e+00 
0.000000e+00 0.000000e+00 0.000000e+00 
0.000000e+00 0.000000e+00 0.000000e+00 
0.000000e+00 0.000000e+00 0.000000e+00 
0.000000e+00 0.000000e+00 0.000000e+00 
0.000000e+00 0.000000e+00 0.000000e+00 
0.000000e+00 0.000000e+00 0.000000e+00 
0.000000e+00 0.000000e+00 0.000000e+00 
0.000000e+00 0.000000e+00 0.000000e+00 
0.000000e+00 0.000000e+00 0.000000e+00 
0.000000e+00 0.000000e+00 0.000000e+00 
0.000000e+00 0.000000e+00 0.000000e+00 
0.000000e+00 0.000000e+00 0.000000e+00 
0.000000e+00 0.000000e+00 0.000000e+00 
0.000000e+00 0.000000e+00 0.000000e+00 
0.000000e+00 0.000000e+00 0.000000e+00 
0.000000e+00 0.000000e+00 0.000000e+00 
0.000000e+00 0.000000e+00 0.000000e+00 
0.000000e+00 0.000000e+00 0.000000e+00 
0.000000e+00 0.000000e+00 0.000000e+00 
0.000000e+00 0.000000e+00 0.000000e+00 
0.000000e+00 0.000000e+00 0.000000e+00 
0.000000e+00 0.000000e+00 0.000000e+00 
0.000000e+00 0.000000e+00 0.000000e+00 
0.000000e+00 0.000000e+00 0.000000e+00 
0.000000e+00 0.000000e+00 0.000000e+00 
0.000000e+00 0.000000e+00 0.000000e+00 
0.000000e+00 0.000000e+00 0.000000e+00 
0.000000e+00 0.000000e+00 0.000000e+00 
0.000000e+00 0.000000e+00 0.000000e+00 
0.000000e+00 0.000000e+00 0.000000e+00 
0.000000e+00 0.000000e+00 0.000000e+00 
0.000000e+00 0.000000e+00 0.000000e+00 
0.000000e+00 0.000000e+00 0.000000e+00 
0.000000e+00 0.000000e+00 0.000000e+00 
0.000000e+00 0.000000e+00 0.000000e+00 
0.000000e+00 0.000000e+00 0.000000e+00 
0.000000e+00 0.000000e+00 0.000000e+00 
0.000000e+00 0.000000e+00 0.000000e+00 