# vtk DataFile Version 3.1
*description-name of input file* step:1901 
ASCII
DATASET UNSTRUCTURED_GRID
POINTS 1605 FLOAT
-7.194506e-09 -5.449031e-09 -2.361704e-10
-7.810257e-09 -4.323743e-09 -6.092713e-10
-6.297963e-09 -4.810696e-09 -6.945870e-10
-7.711946e-09 -4.077719e-09 2.126483e-09
-5.550326e-09 -6.015034e-09 -1.227973e-10
1.203476e-08 6.958430e-09 -1.073937e-08
1.352797e-08 7.357893e-09 -1.084153e-08
1.281944e-08 5.972009e-09 -1.208086e-08
-6.356285e-09 -6.172781e-09 7.371251e-10
-6.348805e-09 -2.803593e-09 8.915725e-10
-4.508829e-09 -4.556207e-09 -1.114152e-09
-6.200674e-09 -2.775431e-09 -3.716155e-10
-5.606492e-09 -5.361027e-09 2.276938e-09
-5.940446e-09 -3.757695e-09 1.802673e-09
-5.190142e-09 -3.536998e-09 -1.655415e-09
-7.432370e-09 -4.395861e-09 3.152303e-09
-3.629629e-09 -5.446265e-09 -1.923959e-11
-6.537602e-09 -1.200897e-09 2.172679e-10
-5.421048e-09 -1.354297e-09 -8.361483e-10
-4.020506e-09 -3.894491e-09 -3.299834e-09
-5.141969e-09 -2.731864e-09 -2.940053e-09
-4.073058e-09 -1.919867e-09 -3.807954e-09
-6.497367e-09 -2.543540e-09 2.346863e-09
-5.819469e-09 1.987054e-10 -2.297558e-09
-6.412086e-09 5.172021e-10 -8.063317e-10
-3.604410e-09 -4.793602e-09 2.045415e-09
-7.150315e-09 -1.196768e-09 1.262476e-09
-5.818658e-09 -3.431891e-09 4.100574e-09
-4.154262e-09 -2.152750e-09 -4.370517e-10
-8.076947e-09 -2.355360e-09 3.148579e-09
-2.491660e-09 -4.405569e-09 -2.258062e-09
-2.810570e-09 -3.236150e-09 -3.876614e-09
-2.280754e-09 -4.142982e-09 -3.325862e-09
-3.572324e-09 -3.438882e-09 -5.356255e-10
-6.090462e-09 -2.450534e-09 4.166735e-09
-4.060594e-09 -9.192655e-10 -2.243903e-09
-5.890549e-09 -6.487602e-10 2.174194e-09
-4.631565e-09 -2.513882e-10 4.749609e-10
-2.863540e-09 -1.999366e-09 -1.998606e-09
-3.839318e-09 -4.004472e-09 3.638336e-09
-4.833252e-09 1.133827e-10 -6.511171e-10
-3.903508e-09 4.678523e-10 -5.080704e-09
-3.941129e-09 5.080023e-10 -2.796924e-09
-4.890373e-09 8.924433e-10 -3.742938e-09
-4.282022e-09 -2.523180e-09 2.156414e-09
-1.695895e-09 -3.250689e-09 -6.497961e-10
-4.503886e-09 2.250655e-09 -4.438129e-09
-2.711859e-09 -1.440634e-09 -3.208268e-09
-3.077486e-09 1.537120e-10 -2.603193e-09
-1.406125e-09 -1.914294e-09 -3.301534e-09
-3.214843e-09 2.566170e-10 -8.304567e-10
-3.082480e-09 -1.949854e-09 1.377926e-10
-3.395857e-09 -9.025434e-11 -4.952313e-09
-1.760970e-09 -2.442174e-09 -1.784516e-09
-3.804710e-09 -5.030587e-10 8.288048e-09
-2.290934e-09 -1.585088e-09 7.488140e-09
-1.793357e-09 4.334815e-10 7.336189e-09
-1.599548e-09 6.202072e-10 -4.061307e-09
-5.821821e-09 -3.220495e-09 5.958168e-09
-4.364320e-09 2.383290e-09 -2.628771e-09
-3.567761e-09 -2.848170e-09 3.815519e-09
-4.500632e-09 -2.869378e-10 2.698231e-09
-3.930485e-09 -1.395088e-09 1.426719e-09
-5.483507e-09 2.360640e-09 -3.453364e-10
-4.892897e-09 7.017162e-10 1.078862e-09
-6.576273e-09 1.818039e-09 1.806594e-09
-4.843164e-09 -4.592578e-09 5.795028e-09
-4.636421e-09 -3.781388e-09 6.910773e-09
-6.304535e-09 -1.675493e-09 6.683304e-09
-2.100551e-09 1.734160e-09 1.963791e-09
-1.983104e-10 2.236049e-09 3.843378e-09
-9.801798e-10 1.773146e-09 6.505780e-10
-4.510094e-09 6.569989e-10 -9.300595e-10
-2.999500e-09 -4.436908e-09 5.344866e-09
9.740275e-10 3.690151e-10 3.678262e-09
9.163289e-10 1.283751e-09 4.362885e-09
1.968553e-11 8.339140e-10 5.640056e-09
-5.562682e-09 3.200199e-09 1.344525e-09
-4.829530e-09 -1.640417e-09 5.388942e-09
-1.084283e-09 -1.431129e-10 -1.271715e-09
-4.581922e-09 -2.254781e-09 4.642350e-09
-3.413657e-09 1.907813e-10 7.708622e-10
-2.062354e-09 -5.841339e-10 1.304265e-10
-5.793430e-09 2.484672e-09 3.754448e-09
-2.356648e-09 -5.126288e-09 3.735256e-09
-3.088497e-09 2.529639e-09 -4.031133e-09
-2.278386e-09 -3.734360e-09 2.716378e-09
-5.674054e-09 -5.133787e-10 5.426014e-09
-2.757063e-09 1.809901e-09 -2.383799e-09
-4.168249e-09 -9.258046e-11 4.852560e-09
-2.828849e-09 -2.959820e-09 5.038720e-09
-5.667673e-09 -6.885068e-10 4.259269e-09
-3.299938e-09 -1.130090e-09 4.216582e-09
-4.324567e-10 -1.579092e-09 7.765226e-11
-4.386063e-09 3.454435e-09 2.404476e-09
-3.427176e-09 2.886285e-09 -8.584545e-10
-1.791757e-10 -1.451670e-09 -3.479683e-09
4.646951e-10 -2.745682e-09 -2.737287e-09
-4.027474e-09 -2.426415e-09 7.790748e-09
-5.346966e-09 -1.439894e-09 7.583718e-09
-5.312715e-09 1.933539e-10 7.764493e-09
7.895328e-10 2.296030e-09 3.156906e-09
-3.513335e-09 1.324352e-09 8.241565e-10
-3.901133e-09 2.959313e-09 2.617846e-10
-6.460975e-09 1.323899e-09 4.702662e-09
-4.304775e-09 -3.859300e-11 3.534393e-09
-3.699356e-09 -2.594194e-09 6.301841e-09
-1.300677e-10 -1.481063e-11 -3.157086e-09
-1.410654e-09 -2.752194e-09 3.600487e-09
-5.036763e-09 1.344005e-09 6.893842e-09
-3.541605e-09 7.619944e-10 3.286027e-09
-4.142058e-09 2.144788e-09 5.422519e-09
-4.159787e-09 1.888457e-09 2.894556e-09
-2.818795e-10 -3.958812e-09 2.715613e-09
8.334859e-10 -3.565743e-09 4.473322e-09
-4.020192e-09 2.227258e-09 1.942256e-09
4.478184e-10 -1.787089e-09 -5.268159e-10
-4.073371e-09 2.814199e-09 3.999020e-09
1.572723e-09 -8.166344e-10 -3.237045e-09
-8.053456e-10 -3.907099e-09 6.294934e-09
-6.773384e-10 -7.030544e-10 1.201459e-09
-2.246631e-09 -3.318954e-09 6.546979e-09
-1.922525e-09 -2.407740e-09 5.559424e-09
-1.622874e-09 -3.887678e-10 2.728457e-09
-1.356795e-09 -1.817407e-09 4.388609e-09
-2.700598e-09 1.332217e-09 3.687042e-09
1.711803e-09 -9.813163e-10 -1.437706e-09
6.523360e-10 8.116428e-10 -1.382648e-09
1.478237e-09 -6.646612e-10 5.790895e-09
-3.218806e-09 1.236272e-09 5.986557e-09
9.537314e-10 6.953537e-10 -3.279961e-09
9.406718e-10 -4.658432e-09 3.146128e-09
-8.322397e-10 -7.380233e-10 4.033563e-09
9.711359e-10 -1.090313e-09 -1.743763e-10
6.686532e-10 -3.403241e-09 5.542552e-09
-3.083001e-09 9.458603e-10 7.335427e-09
-2.267553e-09 2.269191e-09 5.692450e-09
-1.215578e-09 -1.985447e-09 6.685415e-09
2.129750e-09 -4.786064e-09 3.625689e-09
2.002149e-09 -3.705540e-09 2.523964e-09
-3.367639e-10 -1.556758e-09 2.892695e-09
-3.089153e-10 -2.653485e-09 7.070895e-09
1.418289e-09 -1.651327e-09 1.703791e-09
1.982470e-09 -1.329846e-10 -2.227742e-09
-1.025674e-09 1.616618e-09 3.590810e-09
-7.986125e-10 -1.196714e-09 8.020290e-09
1.773244e-09 5.458162e-10 -7.700287e-11
2.624907e-09 -3.570926e-09 4.779001e-09
3.075548e-09 -3.907698e-09 3.570473e-09
1.820309e-09 1.398355e-09 -1.279425e-09
4.769411e-10 -2.286022e-09 6.316102e-09
-1.659160e-09 7.382635e-10 5.151857e-09
2.821697e-09 -3.355605e-10 9.490226e-10
2.394402e-09 5.006640e-10 -4.143608e-09
1.723560e-09 -2.636237e-09 4.889968e-09
3.698325e-09 -2.585825e-09 2.489493e-09
3.513977e-09 4.264052e-10 -2.212830e-09
2.795376e-09 2.407332e-09 -2.618668e-09
2.819322e-09 2.455740e-09 -4.253450e-09
3.361787e-09 1.122541e-09 -4.090236e-09
4.293043e-09 1.718883e-09 -5.351464e-09
1.084221e-09 -1.444912e-09 4.232000e-09
6.209693e-10 -6.994638e-10 7.438363e-09
2.637700e-09 -7.562124e-10 2.040394e-09
1.336130e-09 1.455035e-09 6.155630e-10
2.075320e-09 1.412605e-09 -1.379565e-10
4.579755e-09 1.691773e-09 -3.764582e-09
2.615512e-10 1.400234e-09 7.401034e-09
1.422453e-09 1.031530e-09 2.154931e-09
3.004061e-09 -2.218288e-09 3.526757e-09
2.119427e-09 -5.993872e-11 3.414199e-09
3.554623e-09 -5.601420e-10 2.106950e-09
4.524079e-09 2.714096e-09 -3.677172e-09
3.166855e-09 9.135026e-10 -8.782948e-10
3.347218e-09 1.495855e-09 -1.886232e-09
4.872348e-09 2.746963e-09 -5.089667e-09
3.331020e-09 1.020790e-09 9.207740e-10
5.138951e-09 1.933299e-09 -6.129954e-09
5.330007e-09 1.707951e-09 -4.627177e-09
3.571480e-09 3.882462e-12 1.135381e-10
3.100325e-09 1.045125e-09 2.883031e-09
6.379320e-09 1.385096e-09 -5.779767e-09
5.897700e-09 2.760710e-09 -4.158680e-09
7.226990e-09 2.967215e-09 -6.929439e-09
6.775243e-09 2.166771e-09 -5.119448e-09
7.285460e-09 2.070090e-09 -6.415311e-09
6.087760e-09 3.620427e-09 -4.896438e-09
7.317026e-09 3.340428e-09 -5.520687e-09
8.652513e-09 2.867088e-09 -5.925073e-09
8.463691e-09 2.802017e-09 -7.101756e-09
8.635365e-09 4.075692e-09 -6.695885e-09
9.510941e-09 2.992492e-09 -6.527489e-09
1.025304e-08 4.399165e-09 -7.738800e-09
1.019276e-08 5.087675e-09 -7.695054e-09
9.570542e-09 3.922313e-09 -5.948453e-09
1.114893e-08 4.469968e-09 -6.688656e-09
1.028047e-08 4.859789e-09 -6.088934e-09
1.144039e-08 4.931456e-09 -8.561084e-09
1.128173e-08 6.678711e-09 -7.580901e-09
1.123025e-08 5.341928e-09 -6.537637e-09
1.290810e-08 4.858535e-09 -8.238602e-09
1.140355e-08 6.610561e-09 -1.008491e-08
1.174778e-08 5.836941e-09 -1.029344e-08
1.115995e-08 5.843736e-09 -9.025585e-09
1.235003e-08 5.028504e-09 -9.137412e-09
1.168106e-08 5.982824e-09 -7.115205e-09
1.284858e-08 5.436993e-09 -8.100899e-09
1.333679e-08 5.013300e-09 -8.977360e-09
1.394493e-08 5.292185e-09 -1.052942e-08
1.171976e-08 6.874905e-09 -8.830019e-09
1.416901e-08 6.795614e-09 -1.031784e-08
1.400642e-08 6.272240e-09 -8.994102e-09
1.352035e-08 7.900598e-09 -9.194705e-09
1.947815e-09 1.405480e-09 -7.086908e-10
-4.331947e-09 -3.103902e-09 7.350760e-09
7.256225e-09 2.518652e-09 -6.672375e-09
7.272008e-09 3.153821e-09 -6.225063e-09
1.242710e-08 6.465220e-09 -1.141012e-08
2.333575e-09 1.237913e-09 7.681685e-10
-4.024047e-09 1.849999e-10 -7.407869e-10
7.984770e-09 3.103758e-09 -5.722880e-09
4.412603e-10 3.503849e-10 7.419698e-09
-2.159736e-10 3.342650e-10 -1.327181e-09
-2.970513e-09 -9.228272e-10 -2.300899e-09
7.845341e-09 2.884616e-09 -7.015598e-09
-4.627347e-09 1.637867e-09 -3.185855e-09
-5.734585e-09 1.259877e-09 1.442728e-09
-5.467253e-11 1.450184e-09 3.976847e-09
1.281229e-09 -1.054787e-09 5.011448e-09
1.022290e-08 4.743420e-09 -7.716927e-09
-4.605324e-09 -3.715745e-09 -2.477625e-09
-3.960663e-09 2.593286e-09 1.102021e-09
-3.198305e-09 -2.903995e-09 4.427120e-09
-6.069477e-09 2.509119e-09 1.575559e-09
1.118959e-08 4.905948e-09 -6.613146e-09
1.406184e-10 1.117074e-09 6.520545e-09
2.611342e-10 3.984161e-10 -2.269867e-09
3.590092e-10 1.759900e-09 4.103132e-09
-4.705726e-09 -1.947599e-09 5.015646e-09
-1.666589e-09 -2.579967e-09 4.579955e-09
-4.143598e-09 3.206874e-09 1.333130e-09
-2.108347e-09 -2.575222e-09 -3.589074e-09
1.317370e-08 6.664951e-09 -1.146119e-08
[...]
POINT_DATA 1605
VECTORS vector_force float
1.891541e+02 1.994873e+02 2.478731e+02 
3.513114e+02 -2.377724e+02 -3.430353e+02 
-1.391908e+02 -3.329826e+02 8.365375e+00 
-7.396707e+02 1.069767e+03 2.276030e+02 
8.696805e+01 1.104701e+01 2.196567e+00 
-6.527350e+02 -7.087351e+01 -3.514568e+02 
6.690274e+02 -2.901650e+01 1.224496e+01 
-2.891315e+02 1.832664e+02 -8.059981e+02 
-5.904050e+02 2.454688e+02 -1.829823e+02 
2.465126e+02 6.160559e+02 6.075129e+01 
-3.609639e+02 3.737975e+02 4.940917e+02 
6.937175e+02 4.699788e+02 -4.864149e+02 
-5.272522e+02 -7.829227e+02 2.094298e+02 
1.037282e+02 3.948160e+02 6.070562e+02 
2.726514e+02 5.219694e+02 6.025971e+02 
-2.636315e+02 2.788361e+02 1.191617e+02 
6.163688e+01 2.651195e+02 -7.590450e+02 
-1.008416e+03 -3.705912e+02 3.885126e+02 
-6.201845e+02 3.382707e+02 -2.584147e+02 
-2.201099e+01 1.128319e+02 -3.614204e+02 
-1.124593e+01 7.699668e+02 3.638357e+02 
3.108749e+02 6.555518e+02 -5.606808e+02 
6.181699e+01 2.224870e+02 -3.731622e+02 
-4.315450e+02 4.688368e+01 3.193527e+02 
-4.848406e+02 -1.386514e+03 9.478029e+02 
-1.960904e+01 -7.207590e+02 -1.746743e+02 
-8.324593e+02 1.906141e+02 1.584688e+03 
4.124919e+02 9.218745e+02 1.866901e+02 
-3.819499e+02 5.470896e+01 -1.674805e+02 
-5.059567e+02 -7.739442e+02 -3.483329e+02 
-8.656159e+01 9.874828e+02 3.985951e+02 
-3.213956e+02 -9.086516e+02 4.234806e+02 
-5.362569e+02 4.748329e+02 5.754281e+02 
-1.542528e+02 -4.112676e+02 3.759335e+01 
2.820588e+02 5.540957e+01 -1.537518e+02 
-6.241406e+01 7.312697e+02 4.370705e+02 
1.762737e+02 3.003699e+02 -2.900318e+02 
-1.961257e+02 6.429986e+02 1.390210e+02 
-1.526751e+02 -9.185418e+01 -6.765467e+02 
2.287292e+02 4.111553e+02 -2.760891e+02 
-1.541949e+01 1.099139e+02 -5.267512e+02 
5.102389e+02 5.479928e+01 -4.966849e+02 
1.608914e+02 -4.907503e+02 -4.393682e+02 
-8.817556e+02 -1.206083e+03 5.085568e+02 
1.614363e+02 -2.405837e+02 3.628426e+01 
8.149512e+01 1.765205e+02 -8.430169e+02 
-1.330672e+03 5.040358e+02 7.825647e+02 
-2.558107e+01 1.945291e+02 -4.695193e+02 
5.642593e+02 2.742520e+02 3.476479e+02 
-2.814853e+02 3.840627e+02 -4.634374e+02 
2.651030e+02 -5.346430e+02 4.207736e+02 
-1.220897e+02 -6.502357e+01 -4.325332e+02 
7.283981e+02 -2.317732e+02 -4.064585e+02 
-5.130010e+02 2.882308e+02 -4.654967e+02 
-5.114217e+02 -7.867748e+01 3.078249e+02 
-8.059108e+02 -7.542549e+02 8.421623e+02 
-2.285140e+01 -1.647667e+02 1.252650e+03 
7.527056e+01 3.869745e+02 -6.673782e+02 
-6.256381e+02 3.882389e+02 -1.168531e+02 
-1.007545e+03 -1.056144e+03 1.999240e+02 
5.350483e+02 3.839414e+02 1.862009e+02 
2.391489e+02 9.593776e+02 -6.848808e+02 
2.173966e+02 9.629766e+01 -5.160615e+02 
2.866958e+02 -6.064425e+02 5.118989e+02 
5.057593e+02 -3.932617e+01 5.415498e+02 
1.428681e+01 -6.320104e+02 1.600977e+02 
-3.151464e+02 2.902156e+02 -6.193110e+02 
-5.248685e+02 1.297469e+02 4.298602e+01 
-7.458530e+02 4.916866e+02 -8.322041e+02 
-6.546538e+02 9.839460e+02 3.091223e+02 
-2.532684e+02 5.502518e+02 1.376986e+02 
1.776786e+02 6.153043e+02 8.944194e+02 
-6.901365e+02 -1.138462e+03 4.567493e+02 
1.727734e+02 1.079936e+03 -5.692768e+01 
-1.045216e+02 1.456727e+02 6.257285e+01 
-7.621546e+02 4.367329e+02 5.494081e+02 
1.298946e+02 -3.284047e+02 1.072571e+03 
2.680479e+02 -1.003828e+03 5.499976e+02 
6.673383e+02 4.861112e+02 -1.923159e+02 
2.595491e+01 8.039429e+02 -5.277305e+01 
-5.552603e+01 1.062791e+03 2.472368e+02 
-2.459107e+02 7.357028e+01 -3.964484e+02 
1.758769e+02 1.648131e+02 4.354052e+01 
4.018628e+02 3.289219e+02 4.251037e+02 
1.241791e+03 5.315203e+02 2.145758e+02 
-1.008836e+03 -3.870299e+02 2.640735e+02 
6.331067e+02 4.323464e+02 7.875041e+01 
1.042026e+02 6.604240e+02 8.736461e+02 
-8.657711e+02 3.998871e+01 -6.357735e+02 
-1.526836e+02 1.965338e+02 9.150084e+02 
5.245903e+02 2.854933e+02 2.633283e+02 
9.342951e+02 -3.384722e+02 5.893799e+02 
-6.961188e+02 1.204569e+02 5.262848e+02 
-2.066414e+02 1.774952e+02 -1.325254e+01 
8.154568e+02 -6.487007e+02 2.621250e+01 
-6.752160e+02 -7.467328e+02 4.027393e+02 
-5.454228e+01 5.889760e+02 -4.100356e+02 
2.641940e-01 3.993218e+02 -5.500947e+02 
-7.295171e+02 -2.211930e+02 1.333684e+01 
-6.845877e+02 2.653012e+02 -5.040655e+02 
-6.678540e+02 6.177099e+02 6.941452e+02 
-1.554074e+02 4.462740e+02 -5.481525e+01 
2.851821e+02 -3.109430e+01 3.882065e+02 
3.721040e+02 -6.569480e+02 9.059162e+02 
-1.066142e+02 2.155276e+02 -5.255845e+02 
2.722128e+02 4.673256e+02 9.803156e+02 
-4.615591e+02 3.727842e+02 1.668168e+02 
7.703593e+02 6.912393e+02 -1.457484e+02 
-1.200259e+02 -2.449076e+02 2.017238e+02 
-2.784595e+02 -1.877333e+02 2.645967e+02 
2.257408e+02 -7.845710e+01 1.036314e+03 
-1.340896e+02 -1.043562e+02 6.928080e+02 
5.886033e+02 3.653814e+02 4.657907e+02 
4.389200e+02 -1.800648e+02 -1.607734e+01 
2.415465e+02 8.237672e+02 6.197685e+02 
2.422260e+02 -5.271171e+02 -1.234456e+02 
1.199913e+01 5.538738e+02 1.236921e+02 
9.482845e+02 3.563689e+02 1.639980e+02 
3.311869e+02 1.286216e+02 7.573870e+02 
-4.159990e+02 1.591242e+02 4.298988e+02 
1.182604e+02 -1.193799e+02 3.636934e+02 
-1.241687e+03 9.860760e+02 6.727139e+02 
-1.038508e+02 4.357545e+02 5.177906e+02 
-2.985129e+02 4.340132e+01 7.597919e+02 
-7.169113e+01 1.573862e+02 7.272445e+02 
-2.224004e+02 7.243349e+01 3.732480e+02 
2.356175e+02 5.468998e+02 7.352920e+02 
-3.977811e+02 -3.028822e+02 -1.703807e+02 
8.036561e+01 5.770735e+02 6.860747e+02 
4.982514e+02 1.285649e+02 -2.142884e+02 
2.481402e+02 2.516920e+02 -4.198935e+02 
-2.177508e+02 -3.343799e+02 -3.140243e+02 
9.179419e+01 -9.729847e+01 5.430460e+02 
1.783380e+02 4.127744e+02 5.455116e+02 
2.686750e+02 6.733522e+02 7.857685e+02 
6.423747e+02 -5.663716e+02 4.487325e+02 
-4.434698e+01 -7.358930e+02 -3.213572e+01 
-5.428431e+01 -3.407029e+02 8.208771e+02 
-7.405995e+02 -1.547122e+02 -1.394337e+03 
-5.200717e+01 8.368043e+02 1.427060e+02 
-7.303245e+02 -4.205733e+02 4.925629e+02 
4.376785e+02 -8.807168e+01 3.615103e+02 
5.458067e+01 7.597562e+02 -1.652115e+01 
1.162767e+02 -3.024474e+02 1.939554e+02 
-5.646511e+02 7.947545e+02 -3.073831e+02 
3.740981e+02 -1.258341e+02 5.860966e+02 
9.375701e-01 6.546596e+00 -5.037055e+02 
4.986518e+02 -3.301639e+02 -1.158194e+03 
-2.549616e+02 -1.906732e+02 -1.381796e+03 
-2.659283e+02 5.374483e+01 -1.901335e+01 
4.666548e+02 -3.494223e+02 9.064593e+02 
-3.428634e+02 -6.958263e+01 1.289835e+03 
2.345827e+01 3.520741e+02 2.695309e+02 
-3.639567e+02 -1.698134e+02 6.761312e+00 
8.740791e+02 3.380866e+02 -4.045977e+02 
1.055452e+02 2.192049e+02 -8.104246e+02 
-1.305235e+01 3.045050e+02 1.930082e+02 
-2.209067e+02 -4.236021e+02 -4.451522e+02 
6.722247e+01 -2.506058e+02 -3.569586e+02 
3.334346e+02 -6.473167e+01 5.274023e+02 
-1.051275e+02 -1.261097e+02 -3.176288e+02 
-3.321386e+02 -9.901128e+01 4.633833e+02 
-2.356384e+02 2.969955e+02 1.044629e+03 
-5.334722e+02 2.850528e+02 6.403438e+02 
9.798830e+00 5.251200e+02 -1.751652e+02 
-1.477001e+02 -2.902382e+02 -1.065554e+03 
2.363105e+02 -4.714773e+02 2.951054e+02 
-2.778645e+02 -7.394132e+02 9.205432e+02 
-1.820599e+00 3.210227e+02 3.413140e+02 
-9.201443e+01 2.936551e+02 -4.563809e+01 
2.519469e+02 2.839111e+01 -9.822154e+01 
-7.005917e+01 -1.103845e+02 -7.911824e+01 
7.886730e+02 -7.849595e+01 -6.524135e+00 
3.140001e+02 2.725605e+02 3.187138e+02 
3.994309e+02 -1.710534e+02 1.044278e+02 
-1.605009e+03 5.504926e+02 -2.182426e+01 
-8.642409e+02 5.878160e+02 9.178306e+01 
-2.512762e+02 -1.114310e+02 1.635269e+02 
-7.632942e+01 1.155230e+03 1.988614e+01 
-1.266872e+02 1.089948e+03 -4.971492e+02 
1.015700e+03 -4.245351e+02 -8.342428e+02 
-1.178976e+02 4.356555e+01 1.940140e+03 
-3.180286e+02 3.191887e+02 -1.042543e+03 
-8.594794e+02 -1.202968e+02 2.792370e+02 
1.164958e+01 8.977741e+02 -2.151257e+02 
-7.012347e+02 6.298239e+01 8.287527e+02 
-1.159435e+03 1.005833e+03 -3.376524e+02 
-1.138283e+03 7.884957e+02 4.746592e+02 
1.560590e+02 9.567141e+02 5.984974e+02 
-3.450562e+02 -5.941344e+02 -2.219288e+02 
-7.683081e+02 3.411032e+02 -1.002754e+03 
-3.776274e+02 -1.512956e+02 8.180224e+02 
-6.366476e+02 2.912226e+02 1.918535e+01 
-4.624581e+02 6.243218e+02 -8.241776e+02 
-1.462005e+03 8.305881e+02 -2.224980e+02 
-6.340298e+02 1.224375e+03 7.496591e+01 
-1.438261e+03 2.386180e+02 -8.685082e+02 
6.779683e+02 -8.117973e+02 -8.972214e+00 
3.608759e+02 1.605182e+02 -4.887546e+02 
-9.223515e+02 5.095242e+02 -6.366386e+01 
2.927188e+02 8.068787e+02 5.477137e+02 
-2.784066e+02 6.297645e+02 3.801209e+02 
-3.858814e+01 -7.403022e+02 7.750048e+02 
-3.519177e+02 5.018098e+02 -3.357049e+02 
9.872825e+01 2.344674e+02 3.159120e+02 
-3.010390e+02 -1.172721e+02 -5.990351e+01 
2.058235e+02 -3.453543e+02 8.820806e+01 
-1.619480e+02 1.061372e+01 -5.431458e+02 
-2.385596e+02 -7.910054e+01 -7.006898e+02 
-8.334132e+02 4.506395e+02 -6.712311e+02 
8.090771e+02 -1.115677e+02 1.022669e+03 
1.169731e+03 -3.271740e+02 2.707639e+02 
-8.475755e+02 -1.793232e+02 4.978893e+02 
0.000000e+00 0.000000e+00 0.000000e+00 
0.000000e+00 0.000000e+00 0.000000e+00 
0.000000e+00 0.000000e+00 0.000000e+00 
0.000000e+00 0.000000e+00 0.000000e+00 
0.000000e+00 0.000000e+00 0.000000e+00 
0.000000e+00 0.000000e+00 0.000000e+00 
0.000000e+00 0.000000e+00 0.000000e+00 
0.000000e+00 0.000000e+00 0.000000e+00 
0.000000e+00 0.000000e+00 0.000000e+00 
0.000000e+00 0.000000e+00 0.000000e+00 
0.000000e+00 0.000000e+00 0.000000e+00 
0.000000e+00 0.000000e+00 0.000000e+00 
0.000000e+00 0.000000e+00 0.000000e+00 
0.000000e+00 0.000000e+00 0.000000e+00 
0.000000e+00 0.000000e+00 0.000000e+00 
0.000000e+00 0.000000e+00 0.000000e+00 
0.000000e+00 0.000000e+00 0.000000e+00 
0.000000e+00 0.000000e+00 0.000000e+00 
0.000000e+00 0.000000e+00 0.000000e+00 
0.000000e+00 0.000000e+00 0.000000e+00 
0.000000e+00 0.000000e+00 0.000000e+00 
0.000000e+00 0.000000e+00 0.000000e+00 
0.000000e+00 0.000000e+00 0.000000e+00 
0.000000e+00 0.000000e+00 0.000000e+00 
0.000000e+00 0.000000e+00 0.000000e+00 
0.000000e+00 0.000000e+00 0.000000e+00 
0.000000e+00 0.000000e+00 0.000000e+00 
0.000000e+00 0.000000e+00 0.000000e+00 
0.000000e+00 0.000000e+00 0.000000e+00 
0.000000e+00 0.000000e+00 0.000000e+00 
0.000000e+00 0.000000e+00 0.000000e+00 
0.000000e+00 0.000000e+00 0.000000e+00 
0.000000e+00 0.000000e+00 0.000000e+00 
0.000000e+00 0.000000e+00 0.000000e+00 
0.000000e+00 0.000000e+00 0.000000e+00 
0.000000e+00 0.000000e+00 0.000000e+00 
0.000000e+00 0.000000e+00 0.000000e+00 
0.000000e+00 0.000000e+00 0.000000e+00 
0.000000e+00 0.000000e+00 0.000000e+00 
0.000000e+00 0.000000e+00 0.000000e+00 
0.000000e+00 0.000000e+00 0.000000e+00 
0.000000e+00 0.000000e+00 0.000000e+00 
0.000000e+00 0.000000e+00 0.000000e+00 
0.000000e+00 0.000000e+00 0.000000e+00 
0.000000e+00 0.000000e+00 0.000000e+00 
0.000000e+00 0.000000e+00 0.000000e+00 
0.000000e+00 0.000000e+00 0.000000e+00 
0.000000e+00 0.000000e+00 0.000000e+00 
0.000000e+00 0.000000e+00 0.000000e+00 
0.000000e+00 0.000000e+00 0.000000e+00 
0.000000e+00 0.000000e+00 0.000000e+00 
0.000000e+00 0.000000e+00 0.000000e+00 
0.000000e+00 0.000000e+00 0.000000e+00 
0.000000e+00 0.000000e+00 0.000000e+00 
0.000000e+00 0.000000e+00 0.000000e+00 
0.000000e+00 0.000000e+00 0.000000e+00 
0.000000e+00 0.000000e+00 0.000000e+00 
0.000000e+00 0.000000e+00 0.000000e+00 
0.000000e+00 0.000000e+00 0.000000e+00 
0.000000e+00 0.000000e+00 0.000000e+00 
0.000000e+00 0.000000e+00 0.000000e+00 
0.000000e+00 0.000000e+00 0.000000e+00 
0.000000e+00 0.000000e+00 0.000000e+00 
0.000000e+00 0.000000e+00 0.000000e+00 
0.000000e+00 0.000000e+00 0.000000e+00 
0.000000e+00 0.000000e+00 0.000000e+00 
0.000000e+00 0.000000e+00 0.000000e+00 
0.000000e+00 0.000000e+00 0.000000e+00 
0.000000e+00 0.000000e+00 0.000000e+00 
0.000000e+00 0.000000e+00 0.000000e+00 
0.000000e+00 0.000000e+00 0.000000e+00 
0.000000e+00 0.000000e+00 0.000000e+00 
0.000000e+00 0.000000e+00 0.000000e+00 
0.000000e+00 0.000000e+00 0.000000e+00 
0.000000e+00 0.000000e+00 0.000000e+00 
0.000000e+00 0.000000e+00 0.000000e+00 
0.000000e+00 0.000000e+00 0.000000e+00 
0.000000e+00 0.000000e+00 0.000000e+00 
0.000000e+00 0.000000e+00 0.000000e+00 
0.000000e+00 0.000000e+00 0.000000e+00 
0.000000e+00 0.000000e+00 0.000000e+00 
0.000000e+00 0.000000e+00 0.000000e+00 
0.000000e+00 0.000000e+00 0.000000e+00 
0.000000e+00 0.000000e+00 0.000000e+00 
0.000000e+00 0.000000e+00 0.000000e+00 
0.000000e+00 0.000000e+00 0.000000e+00 
0.000000e+00 0.000000e+00 0.000000e+00 
0.000000e+00 0.000000e+00 0.000000e+00 
0.000000e+00 0.000000e+00 0.000000e+00 
0.000000e+00 0.000000e+00 0.000000e+00 
0.000000e+00 0.000000e+00 0.000000e+00 
0.000000e+00 0.000000e+00 0.000000e+00 
0.000000e+00 0.000000e+00 0.000000e+00 
0.000000e+00 0.000000e+00 0.000000e+00 
0.000000e+00 0.000000e+00 0.000000e+00 
0.000000e+00 0.000000e+00 0.000000e+00 
0.000000e+00 0.000000e+00 0.000000e+00 
0.000000e+00 0.000000e+00 0.000000e+00 
0.000000e+00 0.000000e+00 0.000000e+00 
0.000000e+00 0.000000e+00 0.000000e+00 
0.000000e+00 0.000000e+00 0.000000e+00 
0.000000e+00 0.000000e+00 0.000000e+00 
0.000000e+00 0.000000e+00 0.000000e+00 
0.000000e+00 0.000000e+00 0.000000e+00 
0.000000e+00 0.000000e+00 0.000000e+00 
0.000000e+00 0.000000e+00 0.000000e+00 
0.000000e+00 0.000000e+00 0.000000e+00 
0.000000e+00 0.000000e+00 0.000000e+00 
0.000000e+00 0.000000e+00 0.000000e+00 
0.000000e+00 0.000000e+00 0.000000e+00 
0.000000e+00 0.000000e+00 0.000000e+00 
0.000000e+00 0.000000e+00 0.000000e+00 
0.000000e+00 0.000000e+00 0.000000e+00 
0.000000e+00 0.000000e+00 0.000000e+00 
0.000000e+00 0.000000e+00 0.000000e+00 
0.000000e+00 0.000000e+00 0.000000e+00 
0.000000e+00 0.000000e+00 0.000000e+00 
0.000000e+00 0.000000e+00 0.000000e+00 
0.000000e+00 0.000000e+00 0.000000e+00 
0.000000e+00 0.000000e+00 0.000000e+00 
0.000000e+00 0.000000e+00 0.000000e+00 
0.000000e+00 0.000000e+00 0.000000e+00 
0.000000e+00 0.000000e+00 0.000000e+00 
0.000000e+00 0.000000e+00 0.000000e+00 
0.000000e+00 0.000000e+00 0.000000e+00 
0.000000e+00 0.000000e+00 0.000000e+00 
0.000000e+00 0.000000e+00 0.000000e+00 
0.000000e+00 0.000000e+00 0.000000e+00 
0.000000e+00 0.000000e+00 0.000000e+00 
0.000000e+00 0.000000e+00 0.000000e+00 
0.000000e+00 0.000000e+00 0.000000e+00 
0.000000e+00 0.000000e+00 0.000000e+00 
0.000000e+00 0.000000e+00 0.000000e+00 
0.000000e+00 0.000000e+00 0.000000e+00 
0.000000e+00 0.000000e+00 0.000000e+00 
0.000000e+00 0.000000e+00 0.000000e+00 
0.000000e+00 0.000000e+00 0.000000e+00 
0.000000e+00 0.000000e+00 0.000000e+00 
0.000000e+00 0.000000e+00 0.000000e+00 
0.000000e+00 0.000000e+00 0.000000e+00 
0.000000e+00 0.000000e+00 0.000000e+00 
0.000000e+00 0.000000e+00 0.000000e+00 
0.000000e+00 0.000000e+00 0.000000e+00 
0.000000e+00 0.000000e+00 0.000000e+00 
0.000000e+00 0.000000e+00 0.000000e+00 
0.000000e+00 0.000000e+00 0.000000e+00 
0.000000e+00 0.000000e+00 0.000000e+00 
0.000000e+00 0.000000e+00 0.000000e+00 
0.000000e+00 0.000000e+00 0.000000e+00 
0.000000e+00 0.000000e+00 0.000000e+00 
0.000000e+00 0.000000e+00 0.000000e+00 
0.000000e+00 0.000000e+00 0.000000e+00 
0.000000e+00 0.000000e+00 0.000000e+00 
0.000000e+00 0.000000e+00 0.000000e+00 
0.000000e+00 0.000000e+00 0.000000e+00 
0.000000e+00 0.000000e+00 0.000000e+00 
0.000000e+00 0.000000e+00 0.000000e+00 
0.000000e+00 0.000000e+00 0.000000e+00 
0.000000e+00 0.000000e+00 0.000000e+00 
0.000000e+00 0.000000e+00 0.000000e+00 
0.000000e+00 0.000000e+00 0.000000e+00 
0.000000e+00 0.000000e+00 0.000000e+00 
0.000000e+00 0.000000e+00 0.000000e+00 
0.000000e+00 0.000000e+00 0.000000e+00 
0.000000e+00 0.000000e+00 0.000000e+00 
0.000000e+00 0.000000e+00 0.000000e+00 
0.000000e+00 0.000000e+00 0.000000e+00 
0.000000e+00 0.000000e+00 0.000000e+00 
0.000000e+00 0.000000e+00 0.000000e+00 
0.000000e+00 0.000000e+00 0.000000e+00 
0.000000e+00 0.000000e+00 0.000000e+00 
0.000000e+00 0.000000e+00 0.000000e+00 
0.000000e+00 0.000000e+00 0.000000e+00 
0.000000e+00 0.000000e+00 0.000000e+00 
0.000000e+00 0.000000e+00 0.000000e+00 
0.000000e+00 0.000000e+00 0.000000e+00 
0.000000e+00 0.000000e+00 0.000000e+00 
0.000000e+00 0.000000e+00 0.000000e+00 
0.000000e+00 0.000000e+00 0.000000e+00 
0.000000e+00 0.000000e+00 0.000000e+00 
0.000000e+00 0.000000e+00 0.000000e+00 
0.000000e+00 0.000000e+00 0.000000e+00 
0.000000e+00 0.000000e+00 0.000000e+00 
0.000000e+00 0.000000e+00 0.000000e+00 
0.000000e+00 0.000000e+00 0.000000e+00 
0.000000e+00 0.000000e+00 0.000000e+00 
0.000000e+00 0.000000e+00 0.000000e+00 
0.000000e+00 0.000000e+00 0.000000e+00 
0.000000e+00 0.000000e+00 0.000000e+00 
0.000000e+00 0.000000e+00 0.000000e+00 
0.000000e+00 0.000000e+00 0.000000e+00 
0.000000e+00 0.000000e+00 0.000000e+00 
0.000000e+00 0.000000e+00 0.000000e+00 
0.000000e+00 0.000000e+00 0.000000e+00 
0.000000e+00 0.000000e+00 0.000000e+00 
0.000000e+00 0.000000e+00 0.000000e+00 
0.000000e+00 0.000000e+00 0.000000e+00 
0.000000e+00 0.000000e+00 0.000000e+00 
0.000000e+00 0.000000e+00 0.000000e+00 
0.000000e+00 0.000000e+00 0.000000e+00 
0.000000e+00 0.000000e+00 0.000000e+00 
0.000000e+00 0.000000e+00 0.000000e+00 
0.000000e+00 0.000000e+00 0.000000e+00 
0.000000e+00 0.000000e+00 0.000000e+00 
0.000000e+00 0.000000e+00 0.000000e+00 
0.000000e+00 0.000000e+00 0.000000e+00 
0.000000e+00 0.000000e+00 0.000000e+00 
0.000000e+00 0.000000e+00 0.000000e+00 
0.000000e+00 0.000000e+00 0.000000e+00 
0.000000e+00 0.000000e+00 0.000000e+00 
0.000000e+00 0.000000e+00 0.000000e+00 
0.000000e+00 0.000000e+00 0.000000e+00 
0.000000e+00 0.000000e+00 0.000000e+00 
0.000000e+00 0.000000e+00 0.000000e+00 
0.000000e+00 0.000000e+00 0.000000e+00 
0.000000e+00 0.000000e+00 0.000000e+00 
0.000000e+00 0.000000e+00 0.000000e+00 
0.000000e+00 0.000000e+00 0.000000e+00 
0.000000e+00 0.000000e+00 0.000000e+00 
0.000000e+00 0.000000e+00 0.000000e+00 
0.000000e+00 0.000000e+00 0.000000e+00 
0.000000e+00 0.000000e+00 0.000000e+00 
0.000000e+00 0.000000e+00 0.000000e+00 
0.000000e+00 0.000000e+00 0.000000e+00 
0.000000e+00 0.000000e+00 0.000000e+00 
0.000000e+00 0.000000e+00 0.000000e+00 
0.000000e+00 0.000000e+00 0.000000e+00 
0.000000e+00 0.000000e+00 0.000000e+00 
0.000000e+00 0.000000e+00 0.000000e+00 
0.000000e+00 0.000000e+00 0.000000e+00 
0.000000e+00 0.000000e+00 0.000000e+00 
0.000000e+00 0.000000e+00 0.000000e+00 
0.000000e+00 0.000000e+00 0.000000e+00 
0.000000e+00 0.000000e+00 0.000000e+00 
0.000000e+00 0.000000e+00 0.000000e+00 
0.000000e+00 0.000000e+00 0.000000e+00 
0.000000e+00 0.000000e+00 0.000000e+00 
0.000000e+00 0.000000e+00 0.000000e+00 
0.000000e+00 0.000000e+00 0.000000e+00 
0.000000e+00 0.000000e+00 0.000000e+00 
0.000000e+00 0.000000e+00 0.000000e+00 
0.000000e+00 0.000000e+00 0.000000e+00 
0.000000e+00 0.000000e+00 0.000000e+00 
0.000000e+00 0.000000e+00 0.000000e+00 
0.000000e+00 0.000000e+00 0.000000e+00 
0.000000e+00 0.000000e+00 0.000000e+00 
0.000000e+00 0.000000e+00 0.000000e+00 
0.000000e+00 0.000000e+00 0.000000e+00 
0.000000e+00 0.000000e+00 0.000000e+00 
0.000000e+00 0.000000e+00 0.000000e+00 
0.000000e+00 0.000000e+00 0.000000e+00 
0.000000e+00 0.000000e+00 0.000000e+00 
0.000000e+00 0.000000e+00 0.000000e+00 
0.000000e+00 0.000000e+00 0.000000e+00 
0.000000e+00 0.000000e+00 0.000000e+00 
0.000000e+00 0.000000e+00 0.000000e+00 
0.000000e+00 0.000000e+00 0.000000e+00 
0.000000e+00 0.000000e+00 0.000000e+00 
0.000000e+00 0.000000e+00 0.000000e+00 
0.000000e+00 0.000000e+00 0.000000e+00 
0.000000e+00 0.000000e+00 0.000000e+00 
0.000000e+00 0.000000e+00 0.000000e+00 
0.000000e+00 0.000000e+00 0.000000e+00 
0.000000e+00 0.000000e+00 0.000000e+00 
0.000000e+00 0.000000e+00 0.000000e+00 
0.000000e+00 0.000000e+00 0.000000e+00 
0.000000e+00 0.000000e+00 0.000000e+00 
0.000000e+00 0.000000e+00 0.000000e+00 
0.000000e+00 0.000000e+00 0.000000e+00 
0.000000e+00 0.000000e+00 0.000000e+00 
0.000000e+00 0.000000e+00 0.000000e+00 
0.000000e+00 0.000000e+00 0.000000e+00 
0.000000e+00 0.000000e+00 0.000000e+00 
0.000000e+00 0.000000e+00 0.000000e+00 
0.000000e+00 0.000000e+00 0.000000e+00 
0.000000e+00 0.000000e+00 0.000000e+00 
0.000000e+00 0.000000e+00 0.000000e+00 
0.000000e+00 0.000000e+00 0.000000e+00 