# vtk DataFile Version 3.1
*description-name of input file* step:0 
ASCII
DATASET UNSTRUCTURED_GRID
POINTS 1605 FLOAT
-7.039124e-09 -5.743360e-09 1.300124e-10
-7.657322e-09 -4.557061e-09 -6.375871e-10
-6.248923e-09 -5.155761e-09 -7.252878e-10
-7.577222e-09 -4.425862e-09 1.836513e-09
-5.388321e-09 -6.000960e-09 -1.542879e-10
1.207168e-08 7.051045e-09 -1.074728e-08
1.361298e-08 7.260145e-09 -1.078518e-08
1.267088e-08 5.835846e-09 -1.175238e-08
-5.978422e-09 -5.920261e-09 1.046912e-09
-6.223523e-09 -2.954361e-09 7.657134e-10
-4.410022e-09 -4.634459e-09 -1.267887e-09
-6.369922e-09 -2.950360e-09 -6.693864e-10
-5.608323e-09 -5.160662e-09 2.432912e-09
-6.046323e-09 -3.600461e-09 1.813713e-09
-5.134324e-09 -3.819460e-09 -1.567287e-09
-7.222724e-09 -3.967162e-09 3.219812e-09
-3.428324e-09 -5.495861e-09 3.058127e-10
-6.830823e-09 -1.445160e-09 5.091456e-11
-5.486323e-09 -1.569460e-09 -1.163786e-09
-3.959122e-09 -4.057959e-09 -3.614588e-09
-5.318223e-09 -2.842359e-09 -2.693086e-09
-4.122422e-09 -2.265659e-09 -3.856487e-09
-6.229224e-09 -2.586561e-09 2.505313e-09
-6.312021e-09 1.184042e-11 -2.697585e-09
-6.569324e-09 -2.596048e-11 -9.755853e-10
-3.804722e-09 -4.685361e-09 1.805412e-09
-7.096323e-09 -1.511961e-09 1.484715e-09
-5.877723e-09 -3.624562e-09 4.295413e-09
-4.176822e-09 -1.945360e-09 -5.086862e-10
-7.501023e-09 -1.852562e-09 3.422413e-09
-2.457524e-09 -4.412459e-09 -2.422888e-09
-2.796724e-09 -2.671759e-09 -3.685587e-09
-2.064323e-09 -3.819959e-09 -3.546288e-09
-3.505424e-09 -3.472560e-09 -5.671869e-10
-6.000922e-09 -2.398462e-09 4.300313e-09
-4.584623e-09 -7.421589e-10 -2.591986e-09
-6.109324e-09 -4.352612e-10 1.954714e-09
-4.901423e-09 -3.680614e-10 2.326148e-10
-3.115323e-09 -1.845960e-09 -2.127286e-09
-4.109122e-09 -3.985262e-09 3.781512e-09
-5.019324e-09 4.390404e-10 -8.812852e-10
-3.876322e-09 9.120422e-10 -4.966286e-09
-3.830524e-09 4.390408e-10 -2.856685e-09
-4.868122e-09 1.240941e-09 -3.351985e-09
-4.079523e-09 -2.673861e-09 2.041014e-09
-1.630723e-09 -3.203160e-09 -6.730867e-10
-4.567222e-09 2.572541e-09 -3.918384e-09
-2.953325e-09 -1.453958e-09 -3.696287e-09
-3.173023e-09 -5.875888e-11 -3.067485e-09
-1.691124e-09 -1.501659e-09 -3.423786e-09
-3.537223e-09 6.060402e-10 -8.869852e-10
-2.952424e-09 -1.970960e-09 3.581376e-11
-3.080324e-09 3.810425e-10 -4.504285e-09
-1.787423e-09 -2.272059e-09 -1.926186e-09
-4.037522e-09 -3.831638e-10 8.111015e-09
-2.134424e-09 -1.741964e-09 7.495213e-09
-1.780623e-09 3.030361e-10 7.519615e-09
-1.708925e-09 1.049942e-09 -4.043385e-09
-5.630323e-09 -2.965963e-09 6.112712e-09
-4.164124e-09 2.460740e-09 -2.466584e-09
-3.472324e-09 -2.815962e-09 3.607713e-09
-4.508823e-09 -6.092617e-10 2.485515e-09
-3.928824e-09 -1.605061e-09 1.129414e-09
-5.349323e-09 2.372540e-09 -4.188844e-10
-4.615323e-09 7.445393e-10 1.232015e-09
-6.411423e-09 1.710639e-09 1.637716e-09
-4.545322e-09 -4.361963e-09 5.788713e-09
-4.702424e-09 -3.625864e-09 6.831613e-09
-6.057422e-09 -1.747064e-09 6.610414e-09
-1.906224e-09 1.816639e-09 2.070515e-09
6.762518e-13 2.435038e-09 3.734715e-09
-7.973248e-10 1.881640e-09 1.043715e-09
-4.309723e-09 9.313396e-10 -1.313985e-09
-2.996324e-09 -4.461362e-09 5.483313e-09
1.016676e-09 3.000366e-10 3.815715e-09
7.800761e-10 1.122537e-09 4.239714e-09
2.797725e-11 7.585373e-10 5.429115e-09
-5.455524e-09 3.288439e-09 1.025917e-09
-4.730323e-09 -1.568964e-09 5.511712e-09
-1.151224e-09 4.074062e-11 -1.520986e-09
-4.499323e-09 -2.261963e-09 4.484712e-09
-3.380323e-09 5.803912e-11 4.927146e-10
-2.330324e-09 -4.379597e-10 7.714664e-12
-5.790922e-09 2.583138e-09 3.918216e-09
-2.213823e-09 -5.088562e-09 3.741313e-09
-2.999324e-09 2.804042e-09 -3.385284e-09
-2.145323e-09 -3.732962e-09 2.627213e-09
-5.822724e-09 -4.957630e-10 5.567814e-09
-2.681823e-09 1.870041e-09 -2.392784e-09
-4.332322e-09 -1.089634e-10 4.808214e-09
-2.792624e-09 -2.922763e-09 4.789012e-09
-5.663422e-09 -7.293621e-10 4.049513e-09
-3.273423e-09 -8.815624e-10 4.211116e-09
-7.919232e-10 -1.397060e-09 1.514264e-12
-4.513624e-09 3.437439e-09 2.417417e-09
-3.143424e-09 2.913540e-09 -8.901834e-10
-2.232485e-11 -1.649959e-09 -3.466286e-09
3.427760e-10 -2.824059e-09 -2.590087e-09
-4.097623e-09 -2.292964e-09 8.001314e-09
-5.469324e-09 -1.372965e-09 8.004713e-09
-5.284723e-09 2.972363e-10 7.764915e-09
9.557765e-10 2.109938e-09 3.076816e-09
-3.185322e-09 1.507940e-09 6.741156e-10
-3.454822e-09 2.790839e-09 5.738165e-10
-6.377024e-09 1.248337e-09 5.040915e-09
-4.637122e-09 5.283662e-11 3.677815e-09
-3.653724e-09 -2.510363e-09 6.286712e-09
4.887565e-11 -1.888584e-10 -3.203786e-09
-1.424524e-09 -2.725962e-09 3.498413e-09
-4.926322e-09 1.367537e-09 6.683214e-09
-3.645322e-09 7.160374e-10 3.377715e-09
-4.336924e-09 2.118338e-09 5.469815e-09
-4.280323e-09 1.743038e-09 3.042715e-09
-3.803235e-10 -4.019761e-09 2.746113e-09
8.180766e-10 -3.898462e-09 4.252412e-09
-4.015323e-09 2.366039e-09 1.819716e-09
1.421771e-10 -2.041960e-09 -8.427865e-10
-4.194922e-09 2.932637e-09 4.019415e-09
1.379476e-09 -1.061959e-09 -2.747286e-09
-6.858228e-10 -4.087764e-09 6.276712e-09
-7.187238e-10 -5.625607e-10 1.038614e-09
-2.122725e-09 -3.365164e-09 6.708513e-09
-1.937324e-09 -2.180963e-09 5.373712e-09
-1.611024e-09 -2.819622e-10 2.824015e-09
-1.470823e-09 -1.695462e-09 4.347113e-09
-2.480723e-09 1.465038e-09 3.705015e-09
1.382976e-09 -1.223859e-09 -1.239186e-09
5.705760e-10 8.433407e-10 -1.267785e-09
1.353476e-09 -4.391636e-10 5.893715e-09
-3.227323e-09 1.009837e-09 5.927714e-09
7.880130e-10 8.507244e-10 -2.978884e-09
7.506763e-10 -4.476962e-09 2.892712e-09
-9.453229e-10 -6.229626e-10 4.104713e-09
8.824763e-10 -1.110060e-09 -1.167856e-10
4.601764e-10 -3.882563e-09 5.385812e-09
-3.224323e-09 8.600369e-10 7.283714e-09
-2.719923e-09 2.025438e-09 5.311615e-09
-1.326323e-09 -1.741964e-09 6.550712e-09
1.627676e-09 -4.742963e-09 3.723712e-09
2.115676e-09 -3.643662e-09 2.445513e-09
-2.550244e-10 -1.497361e-09 2.689915e-09
-3.563245e-10 -2.711964e-09 6.965712e-09
1.472876e-09 -1.644361e-09 1.814314e-09
2.172560e-09 -1.252933e-10 -2.141211e-09
-9.764234e-10 1.584438e-09 3.586915e-09
-6.380231e-10 -1.259064e-09 7.861912e-09
1.604676e-09 3.000389e-10 -1.312852e-10
2.251676e-09 -3.565963e-09 4.750712e-09
2.999676e-09 -4.251062e-09 3.707913e-09
1.930916e-09 1.556019e-09 -1.421268e-09
4.823764e-10 -2.170163e-09 6.184912e-09
-1.818825e-09 7.553375e-10 5.214915e-09
2.921376e-09 -5.041607e-10 8.107146e-10
2.715419e-09 3.890289e-10 -3.696005e-09
1.536776e-09 -2.603463e-09 4.972212e-09
3.551976e-09 -2.991162e-09 2.640913e-09
3.323817e-09 7.633770e-10 -2.128190e-09
2.996886e-09 2.575441e-09 -2.773913e-09
2.998296e-09 2.028567e-09 -4.169202e-09
3.850076e-09 9.142025e-10 -3.856703e-09
4.401290e-09 1.339549e-09 -5.083914e-09
1.224676e-09 -1.407962e-09 4.173713e-09
6.706759e-10 -7.849644e-10 7.473713e-09
2.784176e-09 -5.628612e-10 2.120815e-09
1.256176e-09 1.353539e-09 7.287154e-10
2.193476e-09 1.626740e-09 -3.015848e-10
4.645321e-09 1.329892e-09 -3.347806e-09
3.530765e-10 1.117436e-09 7.400813e-09
1.391976e-09 9.547382e-10 2.136915e-09
2.982175e-09 -2.241962e-09 3.651713e-09
2.236676e-09 -2.364620e-10 3.388714e-09
3.578676e-09 1.160389e-10 1.807715e-09
4.514137e-09 2.404001e-09 -3.568074e-09
3.223991e-09 9.142006e-10 -8.011514e-10
3.332607e-09 1.998835e-09 -1.731705e-09
4.835208e-09 2.368736e-09 -4.928532e-09
3.226676e-09 9.290398e-10 6.422148e-10
5.577504e-09 1.653135e-09 -5.685042e-09
5.414744e-09 1.440460e-09 -4.494722e-09
3.497676e-09 -4.595988e-11 -1.542848e-10
3.162676e-09 9.810383e-10 2.546715e-09
6.641955e-09 1.515331e-09 -5.559174e-09
5.590524e-09 2.917238e-09 -4.169201e-09
7.140544e-09 2.998620e-09 -6.473994e-09
7.019248e-09 2.479459e-09 -4.642691e-09
7.531710e-09 2.178309e-09 -6.323062e-09
6.342187e-09 3.604753e-09 -5.015438e-09
7.576738e-09 3.853669e-09 -5.784010e-09
8.695989e-09 2.867325e-09 -5.872759e-09
8.495251e-09 3.005130e-09 -6.962165e-09
8.470511e-09 4.108861e-09 -7.066766e-09
9.396943e-09 3.267716e-09 -6.861254e-09
1.044935e-08 4.187095e-09 -8.051898e-09
1.020966e-08 5.015868e-09 -8.190788e-09
9.572724e-09 3.831951e-09 -6.047453e-09
1.088403e-08 4.001223e-09 -6.951206e-09
1.008596e-08 4.645752e-09 -6.686558e-09
1.125901e-08 5.059485e-09 -8.833490e-09
1.131897e-08 6.207874e-09 -7.667667e-09
1.096270e-08 5.271837e-09 -6.736471e-09
1.218991e-08 4.733643e-09 -8.302224e-09
1.120668e-08 6.716045e-09 -9.847283e-09
1.169818e-08 5.822046e-09 -1.083128e-08
1.124068e-08 5.989043e-09 -8.855283e-09
1.207168e-08 4.962045e-09 -9.236283e-09
1.183453e-08 5.665018e-09 -7.311707e-09
1.268378e-08 5.533544e-09 -8.005683e-09
1.347967e-08 5.043044e-09 -9.155283e-09
1.366468e-08 5.389045e-09 -1.048228e-08
1.222688e-08 7.202143e-09 -8.726381e-09
1.422778e-08 6.456045e-09 -9.913583e-09
1.383767e-08 6.243044e-09 -8.601283e-09
1.358368e-08 7.547044e-09 -9.051281e-09
2.062196e-09 1.591380e-09 -8.614263e-10
-4.400023e-09 -2.959414e-09 7.416463e-09
7.336127e-09 2.588464e-09 -6.398528e-09
7.358641e-09 3.426144e-09 -6.129002e-09
1.237128e-08 6.443445e-09 -1.124983e-08
2.241426e-09 1.141290e-09 6.854651e-10
-4.278274e-09 5.225403e-10 -8.841352e-10
8.136363e-09 3.360497e-09 -5.828384e-09
5.118762e-10 1.662357e-10 7.437263e-09
-2.903238e-10 4.420407e-10 -1.394385e-09
-3.144173e-09 -9.523594e-10 -2.597386e-09
7.817898e-09 3.001875e-09 -6.718080e-09
-4.516123e-09 1.850840e-09 -2.909284e-09
-5.513373e-09 1.227589e-09 1.434865e-09
-9.817370e-11 1.353488e-09 3.913315e-09
1.289076e-09 -9.235626e-10 5.033714e-09
1.032950e-08 4.601481e-09 -8.121343e-09
-4.546723e-09 -3.938709e-09 -2.590937e-09
-3.735073e-09 2.578439e-09 1.196766e-09
-3.132474e-09 -2.869363e-09 4.198363e-09
-5.933474e-09 2.499539e-09 1.331816e-09
1.092336e-08 4.636530e-09 -6.843839e-09
1.905269e-10 9.379866e-10 6.414964e-09
3.097258e-10 3.272412e-10 -2.235785e-09
3.903762e-10 1.778787e-09 3.987214e-09
-4.614823e-09 -1.915464e-09 4.998212e-09
-1.680924e-09 -2.453463e-09 4.436062e-09
-3.984223e-09 3.114139e-09 1.495617e-09
-2.243924e-09 -2.086709e-09 -3.554687e-09
1.314193e-08 6.547995e-09 -1.126878e-08
[...]
POINT_DATA 1605
VECTORS vector_force float
0.000000e+00 0.000000e+00 0.000000e+00 
0.000000e+00 0.000000e+00 0.000000e+00 
0.000000e+00 0.000000e+00 0.000000e+00 
0.000000e+00 0.000000e+00 0.000000e+00 
0.000000e+00 0.000000e+00 0.000000e+00 
0.000000e+00 0.000000e+00 0.000000e+00 
0.000000e+00 0.000000e+00 0.000000e+00 
0.000000e+00 0.000000e+00 0.000000e+00 
0.000000e+00 0.000000e+00 0.000000e+00 
0.000000e+00 0.000000e+00 0.000000e+00 
0.000000e+00 0.000000e+00 0.000000e+00 
0.000000e+00 0.000000e+00 0.000000e+00 
0.000000e+00 0.000000e+00 0.000000e+00 
0.000000e+00 0.000000e+00 0.000000e+00 
0.000000e+00 0.000000e+00 0.000000e+00 
0.000000e+00 0.000000e+00 0.000000e+00 
0.000000e+00 0.000000e+00 0.000000e+00 
0.000000e+00 0.000000e+00 0.000000e+00 
0.000000e+00 0.000000e+00 0.000000e+00 
0.000000e+00 0.000000e+00 0.000000e+00 
0.000000e+00 0.000000e+00 0.000000e+00 
0.000000e+00 0.000000e+00 0.000000e+00 
0.000000e+00 0.000000e+00 0.000000e+00 
0.000000e+00 0.000000e+00 0.000000e+00 
0.000000e+00 0.000000e+00 0.000000e+00 
0.000000e+00 0.000000e+00 0.000000e+00 
0.000000e+00 0.000000e+00 0.000000e+00 
0.000000e+00 0.000000e+00 0.000000e+00 
0.000000e+00 0.000000e+00 0.000000e+00 
0.000000e+00 0.000000e+00 0.000000e+00 
0.000000e+00 0.000000e+00 0.000000e+00 
0.000000e+00 0.000000e+00 0.000000e+00 
0.000000e+00 0.000000e+00 0.000000e+00 
0.000000e+00 0.000000e+00 0.000000e+00 
0.000000e+00 0.000000e+00 0.000000e+00 
0.000000e+00 0.000000e+00 0.000000e+00 
0.000000e+00 0.000000e+00 0.000000e+00 
0.000000e+00 0.000000e+00 0.000000e+00 
0.000000e+00 0.000000e+00 0.000000e+00 
0.000000e+00 0.000000e+00 0.000000e+00 
0.000000e+00 0.000000e+00 0.000000e+00 
0.000000e+00 0.000000e+00 0.000000e+00 
0.000000e+00 0.000000e+00 0.000000e+00 
0.000000e+00 0.000000e+00 0.000000e+00 
0.000000e+00 0.000000e+00 0.000000e+00 
0.000000e+00 0.000000e+00 0.000000e+00 
0.000000e+00 0.000000e+00 0.000000e+00 
0.000000e+00 0.000000e+00 0.000000e+00 
0.000000e+00 0.000000e+00 0.000000e+00 
0.000000e+00 0.000000e+00 0.000000e+00 
0.000000e+00 0.000000e+00 0.000000e+00 
0.000000e+00 0.000000e+00 0.000000e+00 
0.000000e+00 0.000000e+00 0.000000e+00 
0.000000e+00 0.000000e+00 0.000000e+00 
0.000000e+00 0.000000e+00 0.000000e+00 
0.000000e+00 0.000000e+00 0.000000e+00 
0.000000e+00 0.000000e+00 0.000000e+00 
0.000000e+00 0.000000e+00 0.000000e+00 
0.000000e+00 0.000000e+00 0.000000e+00 
0.000000e+00 0.000000e+00 0.000000e+00 
0.000000e+00 0.000000e+00 0.000000e+00 
0.000000e+00 0.000000e+00 0.000000e+00 
0.000000e+00 0.000000e+00 0.000000e+00 
0.000000e+00 0.000000e+00 0.000000e+00 
0.000000e+00 0.000000e+00 0.000000e+00 
0.000000e+00 0.000000e+00 0.000000e+00 
0.000000e+00 0.000000e+00 0.000000e+00 
0.000000e+00 0.000000e+00 0.000000e+00 
0.000000e+00 0.000000e+00 0.000000e+00 
0.000000e+00 0.000000e+00 0.000000e+00 
0.000000e+00 0.000000e+00 0.000000e+00 
0.000000e+00 0.000000e+00 0.000000e+00 
0.000000e+00 0.000000e+00 0.000000e+00 
0.000000e+00 0.000000e+00 0.000000e+00 
0.000000e+00 0.000000e+00 0.000000e+00 
0.000000e+00 0.000000e+00 0.000000e+00 
0.000000e+00 0.000000e+00 0.000000e+00 
0.000000e+00 0.000000e+00 0.000000e+00 
0.000000e+00 0.000000e+00 0.000000e+00 
0.000000e+00 0.000000e+00 0.000000e+00 
0.000000e+00 0.000000e+00 0.000000e+00 
0.000000e+00 0.000000e+00 0.000000e+00 
0.000000e+00 0.000000e+00 0.000000e+00 
0.000000e+00 0.000000e+00 0.000000e+00 
0.000000e+00 0.000000e+00 0.000000e+00 
0.000000e+00 0.000000e+00 0.000000e+00 
0.000000e+00 0.000000e+00 0.000000e+00 
0.000000e+00 0.000000e+00 0.000000e+00 
0.000000e+00 0.000000e+00 0.000000e+00 
0.000000e+00 0.000000e+00 0.000000e+00 
0.000000e+00 0.000000e+00 0.000000e+00 
0.000000e+00 0.000000e+00 0.000000e+00 
0.000000e+00 0.000000e+00 0.000000e+00 
0.000000e+00 0.000000e+00 0.000000e+00 
0.000000e+00 0.000000e+00 0.000000e+00 
0.000000e+00 0.000000e+00 0.000000e+00 
0.000000e+00 0.000000e+00 0.000000e+00 
0.000000e+00 0.000000e+00 0.000000e+00 
0.000000e+00 0.000000e+00 0.000000e+00 
0.000000e+00 0.000000e+00 0.000000e+00 
0.000000e+00 0.000000e+00 0.000000e+00 
0.000000e+00 0.000000e+00 0.000000e+00 
0.000000e+00 0.000000e+00 0.000000e+00 
0.000000e+00 0.000000e+00 0.000000e+00 
0.000000e+00 0.000000e+00 0.000000e+00 
0.000000e+00 0.000000e+00 0.000000e+00 
0.000000e+00 0.000000e+00 0.000000e+00 
0.000000e+00 0.000000e+00 0.000000e+00 
0.000000e+00 0.000000e+00 0.000000e+00 
0.000000e+00 0.000000e+00 0.000000e+00 
0.000000e+00 0.000000e+00 0.000000e+00 
0.000000e+00 0.000000e+00 0.000000e+00 
0.000000e+00 0.000000e+00 0.000000e+00 
0.000000e+00 0.000000e+00 0.000000e+00 
0.000000e+00 0.000000e+00 0.000000e+00 
0.000000e+00 0.000000e+00 0.000000e+00 
0.000000e+00 0.000000e+00 0.000000e+00 
0.000000e+00 0.000000e+00 0.000000e+00 
0.000000e+00 0.000000e+00 0.000000e+00 
0.000000e+00 0.000000e+00 0.000000e+00 
0.000000e+00 0.000000e+00 0.000000e+00 
0.000000e+00 0.000000e+00 0.000000e+00 
0.000000e+00 0.000000e+00 0.000000e+00 
0.000000e+00 0.000000e+00 0.000000e+00 
0.000000e+00 0.000000e+00 0.000000e+00 
0.000000e+00 0.000000e+00 0.000000e+00 
0.000000e+00 0.000000e+00 0.000000e+00 
0.000000e+00 0.000000e+00 0.000000e+00 
0.000000e+00 0.000000e+00 0.000000e+00 
0.000000e+00 0.000000e+00 0.000000e+00 
0.000000e+00 0.000000e+00 0.000000e+00 
0.000000e+00 0.000000e+00 0.000000e+00 
0.000000e+00 0.000000e+00 0.000000e+00 
0.000000e+00 0.000000e+00 0.000000e+00 
0.000000e+00 0.000000e+00 0.000000e+00 
0.000000e+00 0.000000e+00 0.000000e+00 
0.000000e+00 0.000000e+00 0.000000e+00 
0.000000e+00 0.000000e+00 0.000000e+00 
0.000000e+00 0.000000e+00 0.000000e+00 
0.000000e+00 0.000000e+00 0.000000e+00 
0.000000e+00 0.000000e+00 0.000000e+00 
0.000000e+00 0.000000e+00 0.000000e+00 
0.000000e+00 0.000000e+00 0.000000e+00 
0.000000e+00 0.000000e+00 0.000000e+00 
0.000000e+00 0.000000e+00 0.000000e+00 
0.000000e+00 0.000000e+00 0.000000e+00 
0.000000e+00 0.000000e+00 0.000000e+00 
0.000000e+00 0.000000e+00 0.000000e+00 
0.000000e+00 0.000000e+00 0.000000e+00 
0.000000e+00 0.000000e+00 0.000000e+00 
0.000000e+00 0.000000e+00 0.000000e+00 
0.000000e+00 0.000000e+00 0.000000e+00 
0.000000e+00 0.000000e+00 0.000000e+00 
0.000000e+00 0.000000e+00 0.000000e+00 
0.000000e+00 0.000000e+00 0.000000e+00 
0.000000e+00 0.000000e+00 0.000000e+00 
0.000000e+00 0.000000e+00 0.000000e+00 
0.000000e+00 0.000000e+00 0.000000e+00 
0.000000e+00 0.000000e+00 0.000000e+00 
0.000000e+00 0.000000e+00 0.000000e+00 
0.000000e+00 0.000000e+00 0.000000e+00 
0.000000e+00 0.000000e+00 0.000000e+00 
0.000000e+00 0.000000e+00 0.000000e+00 
0.000000e+00 0.000000e+00 0.000000e+00 
0.000000e+00 0.000000e+00 0.000000e+00 
0.000000e+00 0.000000e+00 0.000000e+00 
0.000000e+00 0.000000e+00 0.000000e+00 
0.000000e+00 0.000000e+00 0.000000e+00 
0.000000e+00 0.000000e+00 0.000000e+00 
0.000000e+00 0.000000e+00 0.000000e+00 
0.000000e+00 0.000000e+00 0.000000e+00 
0.000000e+00 0.000000e+00 0.000000e+00 
0.000000e+00 0.000000e+00 0.000000e+00 
0.000000e+00 0.000000e+00 0.000000e+00 
0.000000e+00 0.000000e+00 0.000000e+00 
0.000000e+00 0.000000e+00 0.000000e+00 
0.000000e+00 0.000000e+00 0.000000e+00 
0.000000e+00 0.000000e+00 0.000000e+00 
0.000000e+00 0.000000e+00 0.000000e+00 
0.000000e+00 0.000000e+00 0.000000e+00 
0.000000e+00 0.000000e+00 0.000000e+00 
0.000000e+00 0.000000e+00 0.000000e+00 
0.000000e+00 0.000000e+00 0.000000e+00 
0.000000e+00 0.000000e+00 0.000000e+00 
0.000000e+00 0.000000e+00 0.000000e+00 
0.000000e+00 0.000000e+00 0.000000e+00 
0.000000e+00 0.000000e+00 0.000000e+00 
0.000000e+00 0.000000e+00 0.000000e+00 
0.000000e+00 0.000000e+00 0.000000e+00 
0.000000e+00 0.000000e+00 0.000000e+00 
0.000000e+00 0.000000e+00 0.000000e+00 
0.000000e+00 0.000000e+00 0.000000e+00 
0.000000e+00 0.000000e+00 0.000000e+00 
0.000000e+00 0.000000e+00 0.000000e+00 
0.000000e+00 0.000000e+00 0.000000e+00 
0.000000e+00 0.000000e+00 0.000000e+00 
0.000000e+00 0.000000e+00 0.000000e+00 
0.000000e+00 0.000000e+00 0.000000e+00 
0.000000e+00 0.000000e+00 0.000000e+00 
0.000000e+00 0.000000e+00 0.000000e+00 
0.000000e+00 0.000000e+00 0.000000e+00 
0.000000e+00 0.000000e+00 0.000000e+00 
0.000000e+00 0.000000e+00 0.000000e+00 
0.000000e+00 0.000000e+00 0.000000e+00 
0.000000e+00 0.000000e+00 0.000000e+00 
0.000000e+00 0.000000e+00 0.000000e+00 
0.000000e+00 0.000000e+00 0.000000e+00 
0.000000e+00 0.000000e+00 0.000000e+00 
0.000000e+00 0.000000e+00 0.000000e+00 
0.000000e+00 0.000000e+00 0.000000e+00 
0.000000e+00 0.000000e+00 0.000000e+00 
0.000000e+00 0.000000e+00 0.000000e+00 
0.000000e+00 0.000000e+00 0.000000e+00 
0.000000e+00 0.000000e+00 0.000000e+00 
0.000000e+00 0.000000e+00 0.000000e+00 
0.000000e+00 0.000000e+00 0.000000e+00 
0.000000e+00 0.000000e+00 0.000000e+00 
0.000000e+00 0.000000e+00 0.000000e+00 
0.000000e+00 0.000000e+00 0.000000e+00 
0.000000e+00 0.000000e+00 0.000000e+00 
0.000000e+00 0.000000e+00 0.000000e+00 
0.000000e+00 0.000000e+00 0.000000e+00 
0.000000e+00 0.000000e+00 0.000000e+00 
0.000000e+00 0.000000e+00 0.000000e+00 
0.000000e+00 0.000000e+00 0.000000e+00 
0.000000e+00 0.000000e+00 0.000000e+00 
0.000000e+00 0.000000e+00 0.000000e+00 
0.000000e+00 0.000000e+00 0.000000e+00 
0.000000e+00 0.000000e+00 0.000000e+00 
0.000000e+00 0.000000e+00 0.000000e+00 
0.000000e+00 0.000000e+00 0.000000e+00 
0.000000e+00 0.000000e+00 0.000000e+00 
0.000000e+00 0.000000e+00 0.000000e+00 
0.000000e+00 0.000000e+00 0.000000e+00 
0.000000e+00 0.000000e+00 0.000000e+00 
0.000000e+00 0.000000e+00 0.000000e+00 
0.000000e+00 0.000000e+00 0.000000e+00 
0.000000e+00 0.000000e+00 0.000000e+00 
0.000000e+00 0.000000e+00 0.000000e+00 
0.000000e+00 0.000000e+00 0.000000e+00 
0.000000e+00 0.000000e+00 0.000000e+00 
0.000000e+00 0.000000e+00 0.000000e+00 
0.000000e+00 0.000000e+00 0.000000e+00 
0.000000e+00 0.000000e+00 0.000000e+00 
0.000000e+00 0.000000e+00 0.000000e+00 
0.000000e+00 0.000000e+00 0.000000e+00 
0.000000e+00 0.000000e+00 0.000000e+00 
0.000000e+00 0.000000e+00 0.000000e+00 
0.000000e+00 0.000000e+00 0.000000e+00 
0.000000e+00 0.000000e+00 0.000000e+00 
0.000000e+00 0.000000e+00 0.000000e+00 
0.000000e+00 0.000000e+00 0.000000e+00 
0.000000e+00 0.000000e+00 0.000000e+00 
0.000000e+00 0.000000e+00 0.000000e+00 
0.000000e+00 0.000000e+00 0.000000e+00 
0.000000e+00 0.000000e+00 0.000000e+00 
0.000000e+00 0.000000e+00 0.000000e+00 
0.000000e+00 0.000000e+00 0.000000e+00 
0.000000e+00 0.000000e+00 0.000000e+00 
0.000000e+00 0.000000e+00 0.000000e+00 
0.000000e+00 0.000000e+00 0.000000e+00 
0.000000e+00 0.000000e+00 0.000000e+00 
0.000000e+00 0.000000e+00 0.000000e+00 
0.000000e+00 0.000000e+00 0.000000e+00 
0.000000e+00 0.000000e+00 0.000000e+00 
0.000000e+00 0.000000e+00 0.000000e+00 
0.000000e+00 0.000000e+00 0.000000e+00 
0.000000e+00 0.000000e+00 0.000000e+00 
0.000000e+00 0.000000e+00 0.000000e+00 
0.000000e+00 0.000000e+00 0.000000e+00 
0.000000e+00 0.000000e+00 0.000000e+00 
0.000000e+00 0.000000e+00 0.000000e+00 
0.000000e+00 0.000000e+00 0.000000e+00 
0.000000e+00 0.000000e+00 0.000000e+00 
0.000000e+00 0.000000e+00 0.000000e+00 
0.000000e+00 0.000000e+00 0.000000e+00 
0.000000e+00 0.000000e+00 0.000000e+00 
0.000000e+00 0.000000e+00 0.000000e+00 
0.000000e+00 0.000000e+00 0.000000e+00 
0.000000e+00 0.000000e+00 0.000000e+00 
0.000000e+00 0.000000e+00 0.000000e+00 
0.000000e+00 0.000000e+00 0.000000e+00 
0.000000e+00 0.000000e+00 0.000000e+00 
0.000000e+00 0.000000e+00 0.000000e+00 
0.000000e+00 0.000000e+00 0.000000e+00 
0.000000e+00 0.000000e+00 0.000000e+00 
0.000000e+00 0.000000e+00 0.000000e+00 
0.000000e+00 0.000000e+00 0.000000e+00 
0.000000e+00 0.000000e+00 0.000000e+00 
0.000000e+00 0.000000e+00 0.000000e+00 
0.000000e+00 0.000000e+00 0.000000e+00 
0.000000e+00 0.000000e+00 0.000000e+00 
0.000000e+00 0.000000e+00 0.000000e+00 
0.000000e+00 0.000000e+00 0.000000e+00 
0.000000e+00 0.000000e+00 0.000000e+00 
0.000000e+00 0.000000e+00 0.000000e+00 
0.000000e+00 0.000000e+00 0.000000e+00 
0.000000e+00 0.000000e+00 0.000000e+00 
0.000000e+00 0.000000e+00 0.000000e+00 
0.000000e+00 0.000000e+00 0.000000e+00 
0.000000e+00 0.000000e+00 0.000000e+00 
0.000000e+00 0.000000e+00 0.000000e+00 
0.000000e+00 0.000000e+00 0.000000e+00 
0.000000e+00 0.000000e+00 0.000000e+00 
0.000000e+00 0.000000e+00 0.000000e+00 
0.000000e+00 0.000000e+00 0.000000e+00 
0.000000e+00 0.000000e+00 0.000000e+00 
0.000000e+00 0.000000e+00 0.000000e+00 
0.000000e+00 0.000000e+00 0.000000e+00 
0.000000e+00 0.000000e+00 0.000000e+00 
0.000000e+00 0.000000e+00 0.000000e+00 
0.000000e+00 0.000000e+00 0.000000e+00 
0.000000e+00 0.000000e+00 0.000000e+00 
0.000000e+00 0.000000e+00 0.000000e+00 
0.000000e+00 0.000000e+00 0.000000e+00 
0.000000e+00 0.000000e+00 0.000000e+00 
0.000000e+00 0.000000e+00 0.000000e+00 
0.000000e+00 0.000000e+00 0.000000e+00 
0.000000e+00 0.000000e+00 0.000000e+00 
0.000000e+00 0.000000e+00 0.000000e+00 
0.000000e+00 0.000000e+00 0.000000e+00 
0.000000e+00 0.000000e+00 0.000000e+00 
0.000000e+00 0.000000e+00 0.000000e+00 
0.000000e+00 0.000000e+00 0.000000e+00 
0.000000e+00 0.000000e+00 0.000000e+00 
0.000000e+00 0.000000e+00 0.000000e+00 
0.000000e+00 0.000000e+00 0.000000e+00 
0.000000e+00 0.000000e+00 0.000000e+00 
0.000000e+00 0.000000e+00 0.000000e+00 
0.000000e+00 0.000000e+00 0.000000e+00 
0.000000e+00 0.000000e+00 0.000000e+00 
0.000000e+00 0.000000e+00 0.000000e+00 
0.000000e+00 0.000000e+00 0.000000e+00 
0.000000e+00 0.000000e+00 0.000000e+00 
0.000000e+00 0.000000e+00 0.000000e+00 
0.000000e+00 0.000000e+00 0.000000e+00 
0.000000e+00 0.000000e+00 0.000000e+00 
0.000000e+00 0.000000e+00 0.000000e+00 
0.000000e+00 0.000000e+00 0.000000e+00 
0.000000e+00 0.000000e+00 0.000000e+00 
0.000000e+00 0.000000e+00 0.000000e+00 
0.000000e+00 0.000000e+00 0.000000e+00 
0.000000e+00 0.000000e+00 0.000000e+00 
0.000000e+00 0.000000e+00 0.000000e+00 
0.000000e+00 0.000000e+00 0.000000e+00 
0.000000e+00 0.000000e+00 0.000000e+00 
0.000000e+00 0.000000e+00 0.000000e+00 
0.000000e+00 0.000000e+00 0.000000e+00 
0.000000e+00 0.000000e+00 0.000000e+00 
0.000000e+00 0.000000e+00 0.000000e+00 
0.000000e+00 0.000000e+00 0.000000e+00 
0.000000e+00 0.000000e+00 0.000000e+00 
0.000000e+00 0.000000e+00 0.000000e+00 
0.000000e+00 0.000000e+00 0.000000e+00 
0.000000e+00 0.000000e+00 0.000000e+00 
0.000000e+00 0.000000e+00 0.000000e+00 
0.000000e+00 0.000000e+00 0.000000e+00 
0.000000e+00 0.000000e+00 0.000000e+00 
0.000000e+00 0.000000e+00 0.000000e+00 
0.000000e+00 0.000000e+00 0.000000e+00 
0.000000e+00 0.000000e+00 0.000000e+00 
0.000000e+00 0.000000e+00 0.000000e+00 
0.000000e+00 0.000000e+00 0.000000e+00 
0.000000e+00 0.000000e+00 0.000000e+00 
0.000000e+00 0.000000e+00 0.000000e+00 
0.000000e+00 0.000000e+00 0.000000e+00 
0.000000e+00 0.000000e+00 0.000000e+00 
0.000000e+00 0.000000e+00 0.000000e+00 
0.000000e+00 0.000000e+00 0.000000e+00 
0.000000e+00 0.000000e+00 0.000000e+00 
0.000000e+00 0.000000e+00 0.000000e+00 
0.000000e+00 0.000000e+00 0.000000e+00 
0.000000e+00 0.000000e+00 0.000000e+00 
0.000000e+00 0.000000e+00 0.000000e+00 
0.000000e+00 0.000000e+00 0.000000e+00 
0.000000e+00 0.000000e+00 0.000000e+00 
0.000000e+00 0.000000e+00 0.000000e+00 
0.000000e+00 0.000000e+00 0.000000e+00 
0.000000e+00 0.000000e+00 0.000000e+00 
0.000000e+00 0.000000e+00 0.000000e+00 
0.000000e+00 0.000000e+00 0.000000e+00 
0.000000e+00 0.000000e+00 0.000000e+00 
0.000000e+00 0.000000e+00 0.000000e+00 
0.000000e+00 0.000000e+00 0.000000e+00 
0.000000e+00 0.000000e+00 0.000000e+00 
0.000000e+00 0.000000e+00 0.000000e+00 
0.000000e+00 0.000000e+00 0.000000e+00 
0.000000e+00 0.000000e+00 0.000000e+00 
0.000000e+00 0.000000e+00 0.000000e+00 
0.000000e+00 0.000000e+00 0.000000e+00 
0.000000e+00 0.000000e+00 0.000000e+00 
0.000000e+00 0.000000e+00 0.000000e+00 
0.000000e+00 0.000000e+00 0.000000e+00 
0.000000e+00 0.000000e+00 0.000000e+00 
0.000000e+00 0.000000e+00 0.000000e+00 
0.000000e+00 0.000000e+00 0.000000e+00 
0.000000e+00 0.000000e+00 0.000000e+00 
0.000000e+00 0.000000e+00 0.000000e+00 
0.000000e+00 0.000000e+00 0.000000e+00 
0.000000e+00 0.000000e+00 0.000000e+00 
0.000000e+00 0.000000e+00 0.000000e+00 
0.000000e+00 0.000000e+00 0.000000e+00 
0.000000e+00 0.000000e+00 0.000000e+00 
0.000000e+00 0.000000e+00 0.000000e+00 
0.000000e+00 0.000000e+00 0.000000e+00 
0.000000e+00 0.000000e+00 0.000000e+00 
0.000000e+00 0.000000e+00 0.000000e+00 
0.000000e+00 0.000000e+00 0.000000e+00 
0.000000e+00 0.000000e+00 0.000000e+00 
0.000000e+00 0.000000e+00 0.000000e+00 
0.000000e+00 0.000000e+00 0.000000e+00 
0.000000e+00 0.000000e+00 0.000000e+00 
0.000000e+00 0.000000e+00 0.000000e+00 
0.000000e+00 0.000000e+00 0.000000e+00 
0.000000e+00 0.000000e+00 0.000000e+00 
0.000000e+00 0.000000e+00 0.000000e+00 
0.000000e+00 0.000000e+00 0.000000e+00 
0.000000e+00 0.000000e+00 0.000000e+00 
0.000000e+00 0.000000e+00 0.000000e+00 
0.000000e+00 0.000000e+00 0.000000e+00 
0.000000e+00 0.000000e+00 0.000000e+00 
0.000000e+00 0.000000e+00 0.000000e+00 
0.000000e+00 0.000000e+00 0.000000e+00 
0.000000e+00 0.000000e+00 0.000000e+00 
0.000000e+00 0.000000e+00 0.000000e+00 
0.000000e+00 0.000000e+00 0.000000e+00 
0.000000e+00 0.000000e+00 0.000000e+00 
0.000000e+00 0.000000e+00 0.000000e+00 
0.000000e+00 0.000000e+00 0.000000e+00 
0.000000e+00 0.000000e+00 0.000000e+00 
0.000000e+00 0.000000e+00 0.000000e+00 
0.000000e+00 0.000000e+00 0.000000e+00 
0.000000e+00 0.000000e+00 0.000000e+00 
0.000000e+00 0.000000e+00 0.000000e+00 
0.000000e+00 0.000000e+00 0.000000e+00 
0.000000e+00 0.000000e+00 0.000000e+00 
0.000000e+00 0.000000e+00 0.000000e+00 
0.000000e+00 0.000000e+00 0.000000e+00 
0.000000e+00 0.000000e+00 0.000000e+00 
0.000000e+00 0.000000e+00 0.000000e+00 
0.000000e+00 0.000000e+00 0.000000e+00 
0.000000e+00 0.000000e+00 0.000000e+00 
0.000000e+00 0.000000e+00 0.000000e+00 
0.000000e+00 0.000000e+00 0.000000e+00 
0.000000e+00 0.000000e+00 0.000000e+00 
0.000000e+00 0.000000e+00 0.000000e+00 
0.000000e+00 0.000000e+00 0.000000e+00 
0.000000e+00 0.000000e+00 0.000000e+00 
0.000000e+00 0.000000e+00 0.000000e+00 
0.000000e+00 0.000000e+00 0.000000e+00 
0.000000e+00 0.000000e+00 0.000000e+00 
0.000000e+00 0.000000e+00 0.000000e+00 
0.000000e+00 0.000000e+00 0.000000e+00 
0.000000e+00 0.000000e+00 0.000000e+00 
0.000000e+00 0.000000e+00 0.000000e+00 
0.000000e+00 0.000000e+00 0.000000e+00 
0.000000e+00 0.000000e+00 0.000000e+00 
0.000000e+00 0.000000e+00 0.000000e+00 
0.000000e+00 0.000000e+00 0.000000e+00 
0.000000e+00 0.000000e+00 0.000000e+00 
0.000000e+00 0.000000e+00 0.000000e+00 
0.000000e+00 0.000000e+00 0.000000e+00 
0.000000e+00 0.000000e+00 0.000000e+00 
0.000000e+00 0.000000e+00 0.000000e+00 
0.000000e+00 0.000000e+00 0.000000e+00 
0.000000e+00 0.000000e+00 0.000000e+00 
0.000000e+00 0.000000e+00 0.000000e+00 
0.000000e+00 0.000000e+00 0.000000e+00 
0.000000e+00 0.000000e+00 0.000000e+00 
0.000000e+00 0.000000e+00 0.000000e+00 
0.000000e+00 0.000000e+00 0.000000e+00 
0.000000e+00 0.000000e+00 0.000000e+00 
0.000000e+00 0.000000e+00 0.000000e+00 
0.000000e+00 0.000000e+00 0.000000e+00 
0.000000e+00 0.000000e+00 0.000000e+00 
0.000000e+00 0.000000e+00 0.000000e+00 
0.000000e+00 0.000000e+00 0.000000e+00 
0.000000e+00 0.000000e+00 0.000000e+00 
0.000000e+00 0.000000e+00 0.000000e+00 
0.000000e+00 0.000000e+00 0.000000e+00 
0.000000e+00 0.000000e+00 0.000000e+00 
0.000000e+00 0.000000e+00 0.000000e+00 
0.000000e+00 0.000000e+00 0.000000e+00 
0.000000e+00 0.000000e+00 0.000000e+00 
0.000000e+00 0.000000e+00 0.000000e+00 
0.000000e+00 0.000000e+00 0.000000e+00 
0.000000e+00 0.000000e+00 0.000000e+00 
0.000000e+00 0.000000e+00 0.000000e+00 
0.000000e+00 0.000000e+00 0.000000e+00 
0.000000e+00 0.000000e+00 0.000000e+00 
0.000000e+00 0.000000e+00 0.000000e+00 
0.000000e+00 0.000000e+00 0.000000e+00 
0.000000e+00 0.000000e+00 0.000000e+00 
0.000000e+00 0.000000e+00 0.000000e+00 
0.000000e+00 0.000000e+00 0.000000e+00 
0.000000e+00 0.000000e+00 0.000000e+00 
0.000000e+00 0.000000e+00 0.000000e+00 
0.000000e+00 0.000000e+00 0.000000e+00 