# vtk DataFile Version 3.1
*description-name of input file* step:2701 
ASCII
DATASET UNSTRUCTURED_GRID
POINTS 1605 FLOAT
-7.118536e-09 -5.491523e-09 -2.379373e-10
-7.818230e-09 -4.614017e-09 -5.954495e-10
-6.196774e-09 -4.804253e-09 -7.249489e-10
-7.658942e-09 -4.081902e-09 2.122620e-09
-5.531240e-09 -6.033489e-09 -5.223162e-11
1.204713e-08 6.895113e-09 -1.060786e-08
1.377830e-08 6.927727e-09 -1.115439e-08
1.278379e-08 5.608750e-09 -1.209339e-08
-6.472075e-09 -6.210016e-09 8.666981e-10
-6.194671e-09 -2.833845e-09 8.093334e-10
-4.550154e-09 -4.575817e-09 -1.123343e-09
-6.155078e-09 -2.942131e-09 -2.656937e-10
-5.607087e-09 -5.145211e-09 2.218383e-09
-5.894748e-09 -3.587361e-09 1.680534e-09
-5.277765e-09 -3.424506e-09 -1.526797e-09
-7.361699e-09 -4.167844e-09 3.124565e-09
-3.580503e-09 -5.653417e-09 1.922529e-10
-6.542754e-09 -1.035951e-09 -2.061056e-11
-5.428892e-09 -1.455065e-09 -7.426297e-10
-3.717896e-09 -3.997291e-09 -3.148534e-09
-5.101449e-09 -2.427839e-09 -3.069431e-09
-3.807916e-09 -1.826764e-09 -3.917888e-09
-6.483224e-09 -2.491593e-09 2.333627e-09
-5.689112e-09 -9.012299e-11 -2.454878e-09
-6.272761e-09 6.631585e-10 -9.604726e-10
-3.505264e-09 -4.806312e-09 1.971332e-09
-7.259545e-09 -1.107078e-09 1.243336e-09
-5.841366e-09 -3.343219e-09 3.955451e-09
-4.134035e-09 -2.143628e-09 -3.189069e-10
-7.925902e-09 -2.006498e-09 3.024445e-09
-2.453988e-09 -4.340180e-09 -2.245923e-09
-2.878057e-09 -3.224909e-09 -4.060026e-09
-2.166785e-09 -4.279911e-09 -3.328475e-09
-3.668385e-09 -3.611793e-09 -5.872899e-10
-6.039379e-09 -2.247157e-09 4.123178e-09
-4.171359e-09 -7.266925e-10 -2.197130e-09
-5.796547e-09 -5.413839e-10 2.244204e-09
-4.748742e-09 -3.021131e-10 6.594657e-10
-2.840325e-09 -2.144186e-09 -1.984040e-09
-4.088496e-09 -4.024919e-09 3.741364e-09
-4.677733e-09 1.174671e-10 -6.159287e-10
-3.980356e-09 8.178360e-10 -5.137022e-09
-4.061687e-09 6.170247e-10 -3.098744e-09
-4.837136e-09 1.044076e-09 -3.522444e-09
-4.205326e-09 -2.439807e-09 2.267385e-09
-1.558890e-09 -3.061808e-09 -6.123369e-10
-4.770197e-09 2.507274e-09 -4.438448e-09
-2.801437e-09 -1.407085e-09 -3.150279e-09
-2.997190e-09 1.909070e-10 -2.624446e-09
-1.497700e-09 -1.888137e-09 -3.204587e-09
-3.297585e-09 4.057259e-10 -7.865989e-10
-3.214895e-09 -2.116716e-09 3.277265e-10
-3.498936e-09 8.480112e-11 -4.938870e-09
-1.806459e-09 -2.384313e-09 -1.652092e-09
-3.777832e-09 -6.011653e-10 8.312833e-09
-2.079452e-09 -1.915260e-09 7.406096e-09
-1.745075e-09 4.518913e-10 7.401241e-09
-1.501410e-09 7.948732e-10 -4.019144e-09
-5.943737e-09 -3.111721e-09 6.169700e-09
-4.434679e-09 2.531353e-09 -2.641535e-09
-3.797500e-09 -2.799931e-09 3.923961e-09
-4.429489e-09 -3.389839e-10 2.679199e-09
-3.846689e-09 -1.319220e-09 1.489733e-09
-5.540292e-09 2.239302e-09 -4.278795e-10
-5.145722e-09 8.056868e-10 1.161982e-09
-6.614397e-09 1.808813e-09 1.976985e-09
-4.979218e-09 -4.341906e-09 5.823727e-09
-4.761704e-09 -3.762987e-09 7.212726e-09
-6.292865e-09 -1.560165e-09 6.649468e-09
-1.949018e-09 1.791335e-09 2.138978e-09
-2.562337e-10 2.092702e-09 4.005125e-09
-1.163175e-09 2.077730e-09 7.137429e-10
-4.714340e-09 4.035686e-10 -9.154144e-10
-3.002972e-09 -4.323547e-09 5.379799e-09
1.025046e-09 4.046082e-10 3.603346e-09
9.621778e-10 1.100745e-09 4.174909e-09
-1.543287e-10 8.196948e-10 5.565679e-09
-5.668221e-09 3.112781e-09 1.330289e-09
-4.880431e-09 -1.533548e-09 5.461654e-09
-1.066252e-09 -5.403193e-11 -1.447760e-09
-4.726586e-09 -2.075537e-09 4.593856e-09
-3.446065e-09 2.757773e-10 6.551099e-10
-2.136205e-09 -5.449412e-10 -1.066484e-10
-5.867839e-09 2.212409e-09 4.115919e-09
-2.598067e-09 -5.172970e-09 3.507892e-09
-3.016195e-09 2.616001e-09 -3.984398e-09
-2.274876e-09 -3.645070e-09 2.618554e-09
-5.801832e-09 -6.196072e-10 5.277310e-09
-2.823211e-09 1.974851e-09 -2.211026e-09
-4.295691e-09 -1.266882e-10 4.755579e-09
-2.914576e-09 -2.927156e-09 5.210914e-09
-5.620071e-09 -7.068102e-10 3.908380e-09
-3.189237e-09 -1.098640e-09 4.297125e-09
-4.419679e-10 -1.326387e-09 1.219261e-10
-4.483931e-09 3.329519e-09 2.701565e-09
-3.533521e-09 2.679553e-09 -7.459664e-10
-2.085807e-10 -1.500896e-09 -3.287076e-09
1.727905e-10 -2.630582e-09 -2.548928e-09
-3.981224e-09 -2.334241e-09 7.989765e-09
-5.243738e-09 -1.471049e-09 7.615262e-09
-5.362610e-09 3.315947e-10 7.641374e-09
6.600848e-10 2.191264e-09 3.138953e-09
-3.790185e-09 1.554221e-09 8.737633e-10
-4.057302e-09 2.947921e-09 3.959285e-10
-6.501335e-09 1.022072e-09 4.677957e-09
-4.283579e-09 8.824098e-11 3.423066e-09
-3.742556e-09 -2.673455e-09 6.378124e-09
2.648893e-11 -1.200536e-10 -3.146490e-09
-1.357736e-09 -2.750487e-09 3.738720e-09
-4.940589e-09 1.374767e-09 6.706691e-09
-3.596844e-09 7.242520e-10 3.267910e-09
-4.201598e-09 2.207323e-09 5.520907e-09
-4.266737e-09 1.997102e-09 3.025842e-09
-2.907411e-10 -4.029715e-09 2.792501e-09
8.501654e-10 -3.603029e-09 4.488407e-09
-4.040500e-09 2.443847e-09 2.095660e-09
5.470106e-10 -1.764739e-09 -4.320829e-10
-4.273872e-09 2.749045e-09 4.227074e-09
1.423179e-09 -1.119797e-09 -3.649129e-09
-7.414030e-10 -3.993574e-09 6.330513e-09
-6.577580e-10 -4.655309e-10 1.214634e-09
-2.184680e-09 -3.176591e-09 6.519991e-09
-1.960988e-09 -2.214399e-09 5.593413e-09
-1.439618e-09 -3.161624e-10 2.625517e-09
-1.248951e-09 -1.746023e-09 4.424276e-09
-2.705742e-09 1.258580e-09 3.760583e-09
1.962041e-09 -1.148937e-09 -1.513312e-09
7.305551e-10 7.718444e-10 -1.422497e-09
1.383070e-09 -4.727959e-10 5.932144e-09
-3.158501e-09 1.170579e-09 5.900291e-09
8.258066e-10 5.941276e-10 -3.443341e-09
1.019141e-09 -4.663312e-09 3.129436e-09
-8.291660e-10 -7.399894e-10 3.991390e-09
1.149609e-09 -1.073394e-09 -1.358128e-10
6.743061e-10 -3.542444e-09 5.518226e-09
-2.897921e-09 8.573466e-10 7.212001e-09
-2.544894e-09 2.326237e-09 5.593180e-09
-1.170750e-09 -1.864862e-09 6.696114e-09
1.915557e-09 -4.514205e-09 3.710565e-09
1.968393e-09 -3.600196e-09 2.602815e-09
-3.602528e-10 -1.526176e-09 2.906484e-09
-3.026721e-10 -2.621432e-09 7.027719e-09
1.315808e-09 -1.734007e-09 1.845541e-09
1.952826e-09 -4.274202e-10 -2.427549e-09
-1.165926e-09 1.508103e-09 3.560109e-09
-7.420838e-10 -1.346211e-09 8.023886e-09
1.718645e-09 4.836275e-10 -6.468857e-11
2.518556e-09 -3.634397e-09 4.869319e-09
3.239386e-09 -4.000718e-09 3.575929e-09
1.889987e-09 1.009654e-09 -1.348867e-09
3.752996e-10 -2.166663e-09 6.450369e-09
-1.705722e-09 9.642971e-10 5.162359e-09
2.978652e-09 -4.904264e-10 9.724065e-10
2.683776e-09 2.709315e-10 -4.142388e-09
1.896687e-09 -2.731232e-09 5.167299e-09
3.784437e-09 -2.502087e-09 2.406912e-09
3.529805e-09 3.414732e-10 -2.222787e-09
2.882600e-09 2.370287e-09 -2.673004e-09
2.841844e-09 2.326523e-09 -4.275109e-09
3.563511e-09 1.053679e-09 -3.975062e-09
4.557031e-09 1.876548e-09 -5.541660e-09
1.308306e-09 -1.430255e-09 4.426794e-09
6.896958e-10 -6.641768e-10 7.412426e-09
2.679061e-09 -8.326669e-10 1.988455e-09
1.390850e-09 1.271408e-09 4.649505e-10
2.080272e-09 1.482079e-09 -2.790199e-10
4.626343e-09 1.612060e-09 -3.744383e-09
1.805693e-10 1.491799e-09 7.294101e-09
1.349833e-09 1.111131e-09 2.099939e-09
2.973720e-09 -2.231067e-09 3.525063e-09
2.163004e-09 5.265686e-11 3.358061e-09
3.464757e-09 -8.672154e-10 2.075677e-09
4.297421e-09 2.737323e-09 -3.745487e-09
3.043299e-09 6.120068e-10 -7.915803e-10
3.330783e-09 1.394728e-09 -2.014345e-09
4.893371e-09 2.756062e-09 -5.151509e-09
3.427382e-09 1.302979e-09 9.392993e-10
5.324916e-09 1.934558e-09 -5.794576e-09
5.184666e-09 1.541132e-09 -4.753884e-09
3.827237e-09 -3.711423e-11 7.249412e-11
3.183062e-09 1.128920e-09 2.622734e-09
6.533139e-09 1.483076e-09 -5.779897e-09
5.957269e-09 2.713085e-09 -4.105984e-09
7.538346e-09 2.991642e-09 -6.659992e-09
6.910231e-09 1.997637e-09 -4.816521e-09
7.257642e-09 2.153433e-09 -6.369329e-09
6.171049e-09 3.416385e-09 -5.221746e-09
7.172075e-09 3.279963e-09 -5.512147e-09
8.658364e-09 2.817957e-09 -5.618717e-09
8.535308e-09 2.927170e-09 -7.056248e-09
8.733988e-09 4.190590e-09 -6.564664e-09
9.901954e-09 3.046548e-09 -6.704819e-09
1.025432e-08 4.510528e-09 -7.738902e-09
1.033079e-08 5.143461e-09 -7.839625e-09
9.403553e-09 3.988153e-09 -5.735999e-09
1.120769e-08 4.642026e-09 -6.729441e-09
1.021946e-08 4.940707e-09 -6.214282e-09
1.100508e-08 4.994453e-09 -8.524442e-09
1.131115e-08 6.607030e-09 -7.682795e-09
1.140326e-08 5.412025e-09 -6.475192e-09
1.282909e-08 4.990242e-09 -8.156379e-09
1.127362e-08 6.625371e-09 -9.989381e-09
1.155707e-08 5.854970e-09 -1.037019e-08
1.124033e-08 6.054809e-09 -9.031120e-09
1.203747e-08 4.996980e-09 -8.923240e-09
1.163920e-08 5.886669e-09 -7.038650e-09
1.299174e-08 5.660921e-09 -8.126623e-09
1.333659e-08 4.903727e-09 -8.878659e-09
1.395669e-08 4.748988e-09 -1.062865e-08
1.180777e-08 6.826885e-09 -8.760987e-09
1.429527e-08 6.528220e-09 -1.038684e-08
1.409849e-08 6.298692e-09 -8.970030e-09
1.374541e-08 7.627203e-09 -9.146585e-09
1.985130e-09 1.245867e-09 -8.139434e-10
-4.371464e-09 -3.048614e-09 7.601245e-09
7.397994e-09 2.572537e-09 -6.514660e-09
7.355211e-09 3.135802e-09 -6.086069e-09
1.241546e-08 6.251931e-09 -1.135063e-08
2.409116e-09 1.287193e-09 7.021249e-10
-3.987659e-09 2.615965e-10 -7.012638e-10
7.915219e-09 3.048960e-09 -5.565432e-09
4.351325e-10 4.138110e-10 7.353264e-09
-1.678484e-10 3.589062e-10 -1.435129e-09
-2.918758e-09 -9.766395e-10 -2.304243e-09
8.036827e-09 2.959406e-09 -6.858120e-09
-4.635907e-09 1.787715e-09 -3.081990e-09
-5.880060e-09 1.307250e-09 1.569484e-09
-1.018739e-10 1.304424e-09 3.867509e-09
1.345688e-09 -9.515256e-10 5.179469e-09
1.029255e-08 4.826995e-09 -7.789264e-09
-4.497831e-09 -3.710898e-09 -2.337665e-09
-4.048901e-09 2.695884e-09 1.245794e-09
-3.356038e-09 -2.863543e-09 4.567438e-09
-6.141309e-09 2.460797e-09 1.653637e-09
1.130547e-08 5.027026e-09 -6.602317e-09
1.312030e-11 1.155747e-09 6.429890e-09
3.785220e-10 3.258954e-10 -2.284494e-09
3.529721e-10 1.596724e-09 4.090017e-09
-4.803509e-09 -1.804543e-09 5.027755e-09
-1.659362e-09 -2.482443e-09 4.666066e-09
-4.270617e-09 3.138720e-09 1.548747e-09
-2.187878e-09 -2.556523e-09 -3.632307e-09
1.328104e-08 6.268238e-09 -1.162389e-08
[...]
POINT_DATA 1605
VECTORS vector_force float
-3.658151e+02 1.801463e+01 3.745374e+02 
-6.141134e+02 -5.993527e+02 2.781607e+02 
-4.486837e+02 -3.484471e+02 -1.756301e+02 
7.312124e+02 -3.469961e+02 3.869623e+02 
-8.496031e+02 -7.853947e+01 -2.048446e+02 
7.357494e+02 7.728548e+02 1.077104e+03 
4.301111e+02 -3.801450e+02 8.846497e+02 
7.227433e+02 3.612754e+02 -8.698224e+02 
-1.406478e+01 -1.248856e+02 -4.919663e+02 
-4.987805e+01 5.518064e+02 -1.906995e+02 
-2.337847e+02 5.350673e+02 6.940630e+01 
-6.994849e+02 1.021939e+02 2.164414e+02 
5.510234e+02 -4.939534e+02 -1.489091e+02 
2.814519e+02 2.434540e+02 4.503969e+02 
4.254282e+01 2.107651e+01 3.768648e+02 
8.534046e+02 -1.045038e+03 -3.230728e+02 
-6.451715e+02 3.707250e+02 -8.675447e+01 
1.744545e+02 5.731152e+01 -1.124262e+03 
9.001894e+01 6.764091e+02 1.238191e+02 
3.183855e+01 1.256601e+03 -3.806300e+02 
8.690272e+02 1.523019e+03 -1.005871e+03 
1.383430e+03 2.104564e+03 -4.806321e+02 
-1.212622e+02 -3.123598e+01 -5.781978e+01 
-1.211231e+01 2.726362e+02 -2.994021e+02 
-8.447584e+02 -2.593038e+02 -2.733764e+02 
-6.955492e+02 3.996323e+02 -2.403076e+02 
-6.564869e+01 8.817081e+02 -1.365115e+03 
4.595862e+01 -5.938167e+02 -1.293755e+02 
-5.162020e+02 -4.597196e+01 -1.426918e+02 
-2.002621e+02 -2.673004e+02 3.750996e+02 
-5.734161e+02 1.243993e+02 6.228888e+02 
5.796483e+02 3.850755e+02 -1.097513e+02 
4.259729e+02 5.357865e+02 1.146678e+02 
-1.965550e+02 3.932415e+02 5.662612e+02 
-8.970817e+01 -2.591783e+02 3.650493e+02 
-3.825386e+02 -4.752514e+01 3.663572e+02 
3.918162e+02 1.881490e+02 3.279143e+02 
3.525502e+02 9.258507e+02 5.532963e+02 
3.792880e+02 1.253595e+02 -4.142139e+02 
3.206821e+02 -1.264169e+02 5.508055e+02 
3.944809e+02 1.187847e+03 1.118436e+03 
4.651102e+02 3.848849e+02 -6.592326e+02 
-5.984115e+02 2.831582e+02 1.627799e+02 
-3.443807e+02 3.980138e+01 -5.385171e+02 
-1.962966e+02 -4.106294e+02 -1.370015e+02 
1.723624e+02 -3.261035e+01 5.948135e+02 
-9.102172e+02 4.072266e+02 -1.052439e+03 
1.114721e+02 -5.520099e+02 1.402003e+02 
-6.045442e+01 -4.815223e+02 -5.117124e+02 
2.693153e+02 1.016216e+02 9.835517e+02 
-4.326972e+02 -1.112798e+02 -6.271143e+02 
-3.456378e+02 1.534756e+02 6.277185e+01 
-8.726865e+01 3.176164e+02 -7.867664e+02 
-1.764657e+02 5.819060e+02 8.814797e+02 
-2.049525e+02 -6.680776e+01 4.334249e+02 
-1.629352e+02 -1.848948e+02 -9.245965e+01 
3.059618e+02 -7.856031e+02 -2.439216e+02 
-1.241321e+03 -1.100553e+03 1.080655e+03 
-8.970010e+02 6.836496e+02 -6.970890e+01 
-7.153686e+02 1.355137e+03 -2.962413e+02 
1.407552e+02 1.627477e+02 -1.306017e+02 
4.189489e+02 -6.771574e+01 5.669078e+02 
-3.187444e+02 -2.092850e+02 -3.294866e+02 
2.092296e+02 -2.858950e+02 1.324807e+01 
-4.578319e+01 -4.099816e+02 8.650909e+02 
-1.643143e+02 -4.350088e+02 -1.410102e+01 
1.555043e+02 1.742928e+02 -3.091092e+02 
-6.942059e+02 4.047694e+02 1.009512e+02 
6.649765e+02 1.126348e+02 -8.137198e+02 
-5.553977e+01 1.373770e+02 2.847734e+02 
4.105167e+02 -2.702791e+02 -6.945024e+02 
5.816924e+02 -1.408843e+02 3.448622e+02 
4.683970e+01 -6.662015e+02 6.774876e+00 
-1.735136e+02 1.200868e+02 4.258866e+02 
4.958800e+02 -2.317877e+02 4.921163e+02 
1.550664e+02 -2.748082e+02 5.480156e+02 
6.596696e+01 -7.056677e+02 4.071187e+00 
3.937415e+01 -1.043006e+03 3.219808e+02 
1.728530e+02 -3.147848e+02 2.396934e+02 
-3.682947e+02 1.557361e+01 -9.013514e+02 
-1.117555e+02 3.770692e+02 3.268337e+02 
8.420882e+02 1.983479e+02 -4.911949e+02 
1.451826e+01 -1.618465e+02 3.754304e+02 
-1.484383e+02 1.281905e+02 1.332117e+01 
-7.045630e+02 -5.458746e+02 8.816288e+02 
1.121729e+02 -6.249132e+01 -3.121825e+02 
5.279108e+02 -3.087092e+01 1.054017e+03 
2.638082e+02 -1.029871e+01 -8.111479e+02 
-7.805185e+02 -7.873894e+01 -4.586833e+01 
2.080689e+02 -2.533954e+02 -3.696611e+02 
-6.708190e+01 -2.346757e+02 2.167349e+02 
-4.943518e+02 7.336393e+02 6.530431e+00 
-4.938475e+02 -2.616940e+01 1.342250e+02 
5.083037e+02 -2.722037e+02 -1.304081e+02 
-4.184339e+02 3.257025e+02 -3.919416e+02 
-6.689332e+01 -4.645146e+02 -1.629812e+01 
3.490890e+02 -8.387257e+01 -6.341593e+02 
-4.758036e+02 -1.819156e+02 7.084463e+02 
1.618412e+02 -2.663356e+02 4.052292e+02 
1.782828e+02 3.398061e+02 -3.549580e+02 
-3.219758e+02 -2.331069e+02 -2.797397e+02 
-9.965284e+02 1.992718e+02 -1.094113e+03 
-5.613282e+02 -1.495450e+02 6.665912e+02 
8.326080e+02 -1.335453e+03 6.541860e+02 
2.767376e+02 -3.301673e+02 -3.782161e+02 
6.871757e+02 2.180489e+02 2.444554e+02 
4.565501e+02 -4.069690e+01 -1.807485e+02 
3.769288e+02 -6.813840e+02 -1.752593e+02 
-2.549629e+02 3.799530e+02 8.991869e+02 
5.930475e+02 -4.659542e+02 -1.207211e+02 
1.910874e+02 7.783763e+02 -4.148571e+02 
1.853085e+02 -3.835695e+02 7.264973e+02 
6.268143e+02 -3.516504e+02 3.759523e+02 
-1.432345e+02 4.451894e+02 1.469685e+02 
-1.372766e+02 3.012892e+02 2.767818e+02 
1.856972e+02 3.580366e+02 5.289430e+02 
6.208074e+02 6.663548e+01 2.925501e+02 
-3.859310e+02 -3.373208e+02 4.210447e+02 
5.579455e+02 -2.995553e+02 -3.929433e+02 
5.099623e+02 2.250060e+02 4.868343e+02 
-1.925891e+02 2.869113e+01 -2.280660e+02 
2.687547e+02 5.574296e+02 2.194211e+02 
2.685560e+02 1.572591e+02 -2.269620e+01 
4.333168e+02 -1.709169e+02 1.012299e+02 
-1.870747e+01 -1.761157e+01 6.807229e+02 
3.707582e+02 5.349344e+02 -1.442775e+01 
2.196060e+02 -1.655580e+02 -6.974328e+02 
-5.470744e+02 3.973707e+01 9.972841e+02 
5.709638e+02 -3.340000e+02 -1.298133e+02 
3.715261e+02 -1.642982e+02 -3.343808e+02 
3.995912e+02 4.202268e+00 3.217077e+02 
1.701607e+02 3.653550e+02 -6.813962e+01 
1.157887e+02 1.773163e+02 7.215035e-01 
9.925169e+02 1.358326e+02 -5.305548e+01 
1.946871e+02 8.566179e+02 -6.872462e+01 
-5.710649e+02 -7.119185e+02 -9.242049e+02 
9.839360e+02 -2.546141e+02 -8.052033e+02 
-1.772201e+02 -5.663094e+02 1.634532e+02 
3.569016e+02 4.153622e+02 -1.676233e+02 
-2.278667e+01 -1.509318e+02 2.610997e+02 
-1.600276e+02 -7.110748e+01 -1.398931e+02 
1.385422e+03 -5.386023e+02 -2.800579e+02 
-1.337050e+01 -1.836087e+02 2.497515e+02 
2.254022e+02 1.676727e+02 5.161102e+02 
3.306017e+02 -3.815224e+02 -6.306612e+02 
6.749664e+02 -4.101537e+02 -4.481532e+02 
-5.364102e+01 7.369464e+02 -1.585489e+02 
-5.070405e+02 7.876451e+02 -8.574634e+02 
4.969167e+02 2.414489e+02 -3.834902e+02 
1.763557e+02 1.176455e+02 4.363248e+02 
8.909903e+02 -1.762427e+02 5.716904e+02 
2.868129e+02 -5.382305e+02 8.396282e+00 
-4.625241e+02 -2.862237e+02 2.736372e+02 
1.628946e+03 2.499677e+02 -1.889504e+02 
4.962616e+02 5.767348e+02 5.199078e+02 
-1.438028e+02 -3.644971e+01 2.979101e+02 
9.488947e+02 1.831224e+01 5.526644e+02 
5.236406e+02 -6.168524e+01 -4.164359e+02 
4.532150e+02 -6.155861e+02 -1.599319e+02 
1.042126e+03 4.903452e+02 9.168850e+01 
4.685385e+02 -2.830731e+01 4.886193e+02 
5.896360e+02 2.539265e+02 6.681835e+01 
1.064997e+03 1.245748e+02 6.586581e+02 
-3.131776e+02 8.501393e+02 2.417668e+02 
-1.474909e+00 4.232041e+02 1.246171e+02 
-2.141049e+02 -9.389485e+02 -1.036922e+03 
6.851683e+02 -5.208182e+02 7.500107e+01 
-9.154748e+02 3.398469e+01 -1.538977e+02 
-2.411404e+02 4.897213e+02 -1.379842e+01 
-1.820801e+02 -3.695391e+02 -6.556616e+01 
-3.715087e+01 1.320602e+02 -8.087075e+01 
-6.560834e+02 1.426370e+03 9.854317e+02 
2.779565e+02 4.388331e+02 4.743777e+02 
-4.817859e+01 -5.848265e+02 8.441269e+01 
6.214521e+02 -3.234447e+02 -2.984523e+02 
-7.748731e+02 2.923923e+02 4.327780e+02 
-3.835496e+02 6.412822e+02 -7.395372e+02 
8.870426e+02 9.344170e+00 3.572876e+02 
7.472055e+02 -4.030066e+02 5.323041e+02 
6.748576e+01 2.969846e+02 -1.458550e+02 
-1.566331e+03 1.423458e+03 -4.162431e+02 
-3.003666e+02 -6.248206e+01 5.110162e+02 
3.507327e+02 6.326248e+02 7.512308e+02 
-7.371530e+02 2.021935e+02 3.769201e+02 
6.576878e+02 7.757130e+02 4.944882e+02 
-6.239207e+02 -2.306434e+02 1.233001e+03 
-1.608914e+02 2.884809e+02 3.797661e+02 
-7.031589e+02 -2.587082e+02 7.522140e+02 
-5.907286e+02 5.537866e+02 1.856936e+02 
-3.322157e+02 5.056231e+01 6.741330e+02 
6.390571e+02 7.435821e+02 1.261100e+03 
-4.215411e+02 -5.028826e+02 1.532051e+02 
-5.187964e+01 -1.431835e+02 -6.156969e+02 
-4.937834e+02 4.004063e+02 -1.839971e+02 
7.648405e+02 -1.036643e+02 1.134826e+02 
7.326108e+02 1.241055e+02 3.221968e+02 
1.013996e+03 -1.721935e+01 4.927306e+02 
-3.415852e+01 4.788218e+02 -5.487021e+01 
-5.807900e+02 1.094274e+02 -1.734257e+01 
4.635717e+02 1.666346e+02 6.814370e+02 
-2.680869e+02 -2.320794e+02 6.581793e+02 
3.591564e+02 4.542074e+02 3.348269e+02 
3.035210e+02 1.460727e+03 -7.481088e+02 
9.624942e+02 5.083661e+02 -5.648521e+02 
-3.573988e+02 7.146375e+02 -2.748677e+02 
-5.115317e+02 3.693267e+02 1.208996e+02 
-2.107427e+02 -1.955772e+02 8.641848e+02 
-1.287143e+03 -3.231969e+01 -3.319091e+01 
-3.527471e+02 -9.222174e+02 6.372092e+02 
9.455655e+02 8.291228e+02 -5.777426e+02 
1.847386e+01 -9.603236e+02 1.492513e+03 
-1.751495e+02 -4.356758e+02 7.370433e+02 
1.203487e+03 -5.156740e+01 5.791106e+02 
0.000000e+00 0.000000e+00 0.000000e+00 
0.000000e+00 0.000000e+00 0.000000e+00 
0.000000e+00 0.000000e+00 0.000000e+00 
0.000000e+00 0.000000e+00 0.000000e+00 
0.000000e+00 0.000000e+00 0.000000e+00 
0.000000e+00 0.000000e+00 0.000000e+00 
0.000000e+00 0.000000e+00 0.000000e+00 
0.000000e+00 0.000000e+00 0.000000e+00 
0.000000e+00 0.000000e+00 0.000000e+00 
0.000000e+00 0.000000e+00 0.000000e+00 
0.000000e+00 0.000000e+00 0.000000e+00 
0.000000e+00 0.000000e+00 0.000000e+00 
0.000000e+00 0.000000e+00 0.000000e+00 
0.000000e+00 0.000000e+00 0.000000e+00 
0.000000e+00 0.000000e+00 0.000000e+00 
0.000000e+00 0.000000e+00 0.000000e+00 
0.000000e+00 0.000000e+00 0.000000e+00 
0.000000e+00 0.000000e+00 0.000000e+00 
0.000000e+00 0.000000e+00 0.000000e+00 
0.000000e+00 0.000000e+00 0.000000e+00 
0.000000e+00 0.000000e+00 0.000000e+00 
0.000000e+00 0.000000e+00 0.000000e+00 
0.000000e+00 0.000000e+00 0.000000e+00 
0.000000e+00 0.000000e+00 0.000000e+00 
0.000000e+00 0.000000e+00 0.000000e+00 
0.000000e+00 0.000000e+00 0.000000e+00 
0.000000e+00 0.000000e+00 0.000000e+00 
0.000000e+00 0.000000e+00 0.000000e+00 
0.000000e+00 0.000000e+00 0.000000e+00 
0.000000e+00 0.000000e+00 0.000000e+00 
0.000000e+00 0.000000e+00 0.000000e+00 
0.000000e+00 0.000000e+00 0.000000e+00 
0.000000e+00 0.000000e+00 0.000000e+00 
0.000000e+00 0.000000e+00 0.000000e+00 
0.000000e+00 0.000000e+00 0.000000e+00 
0.000000e+00 0.000000e+00 0.000000e+00 
0.000000e+00 0.000000e+00 0.000000e+00 
0.000000e+00 0.000000e+00 0.000000e+00 
0.000000e+00 0.000000e+00 0.000000e+00 
0.000000e+00 0.000000e+00 0.000000e+00 
0.000000e+00 0.000000e+00 0.000000e+00 
0.000000e+00 0.000000e+00 0.000000e+00 
0.000000e+00 0.000000e+00 0.000000e+00 
0.000000e+00 0.000000e+00 0.000000e+00 
0.000000e+00 0.000000e+00 0.000000e+00 
0.000000e+00 0.000000e+00 0.000000e+00 
0.000000e+00 0.000000e+00 0.000000e+00 
0.000000e+00 0.000000e+00 0.000000e+00 
0.000000e+00 0.000000e+00 0.000000e+00 
0.000000e+00 0.000000e+00 0.000000e+00 
0.000000e+00 0.000000e+00 0.000000e+00 
0.000000e+00 0.000000e+00 0.000000e+00 
0.000000e+00 0.000000e+00 0.000000e+00 
0.000000e+00 0.000000e+00 0.000000e+00 
0.000000e+00 0.000000e+00 0.000000e+00 
0.000000e+00 0.000000e+00 0.000000e+00 
0.000000e+00 0.000000e+00 0.000000e+00 
0.000000e+00 0.000000e+00 0.000000e+00 
0.000000e+00 0.000000e+00 0.000000e+00 
0.000000e+00 0.000000e+00 0.000000e+00 
0.000000e+00 0.000000e+00 0.000000e+00 
0.000000e+00 0.000000e+00 0.000000e+00 
0.000000e+00 0.000000e+00 0.000000e+00 
0.000000e+00 0.000000e+00 0.000000e+00 
0.000000e+00 0.000000e+00 0.000000e+00 
0.000000e+00 0.000000e+00 0.000000e+00 
0.000000e+00 0.000000e+00 0.000000e+00 
0.000000e+00 0.000000e+00 0.000000e+00 
0.000000e+00 0.000000e+00 0.000000e+00 
0.000000e+00 0.000000e+00 0.000000e+00 
0.000000e+00 0.000000e+00 0.000000e+00 
0.000000e+00 0.000000e+00 0.000000e+00 
0.000000e+00 0.000000e+00 0.000000e+00 
0.000000e+00 0.000000e+00 0.000000e+00 
0.000000e+00 0.000000e+00 0.000000e+00 
0.000000e+00 0.000000e+00 0.000000e+00 
0.000000e+00 0.000000e+00 0.000000e+00 
0.000000e+00 0.000000e+00 0.000000e+00 
0.000000e+00 0.000000e+00 0.000000e+00 
0.000000e+00 0.000000e+00 0.000000e+00 
0.000000e+00 0.000000e+00 0.000000e+00 
0.000000e+00 0.000000e+00 0.000000e+00 
0.000000e+00 0.000000e+00 0.000000e+00 
0.000000e+00 0.000000e+00 0.000000e+00 
0.000000e+00 0.000000e+00 0.000000e+00 
0.000000e+00 0.000000e+00 0.000000e+00 
0.000000e+00 0.000000e+00 0.000000e+00 
0.000000e+00 0.000000e+00 0.000000e+00 
0.000000e+00 0.000000e+00 0.000000e+00 
0.000000e+00 0.000000e+00 0.000000e+00 
0.000000e+00 0.000000e+00 0.000000e+00 
0.000000e+00 0.000000e+00 0.000000e+00 
0.000000e+00 0.000000e+00 0.000000e+00 
0.000000e+00 0.000000e+00 0.000000e+00 
0.000000e+00 0.000000e+00 0.000000e+00 
0.000000e+00 0.000000e+00 0.000000e+00 
0.000000e+00 0.000000e+00 0.000000e+00 
0.000000e+00 0.000000e+00 0.000000e+00 
0.000000e+00 0.000000e+00 0.000000e+00 
0.000000e+00 0.000000e+00 0.000000e+00 
0.000000e+00 0.000000e+00 0.000000e+00 
0.000000e+00 0.000000e+00 0.000000e+00 
0.000000e+00 0.000000e+00 0.000000e+00 
0.000000e+00 0.000000e+00 0.000000e+00 
0.000000e+00 0.000000e+00 0.000000e+00 
0.000000e+00 0.000000e+00 0.000000e+00 
0.000000e+00 0.000000e+00 0.000000e+00 
0.000000e+00 0.000000e+00 0.000000e+00 
0.000000e+00 0.000000e+00 0.000000e+00 
0.000000e+00 0.000000e+00 0.000000e+00 
0.000000e+00 0.000000e+00 0.000000e+00 
0.000000e+00 0.000000e+00 0.000000e+00 
0.000000e+00 0.000000e+00 0.000000e+00 
0.000000e+00 0.000000e+00 0.000000e+00 
0.000000e+00 0.000000e+00 0.000000e+00 
0.000000e+00 0.000000e+00 0.000000e+00 
0.000000e+00 0.000000e+00 0.000000e+00 
0.000000e+00 0.000000e+00 0.000000e+00 
0.000000e+00 0.000000e+00 0.000000e+00 
0.000000e+00 0.000000e+00 0.000000e+00 
0.000000e+00 0.000000e+00 0.000000e+00 
0.000000e+00 0.000000e+00 0.000000e+00 
0.000000e+00 0.000000e+00 0.000000e+00 
0.000000e+00 0.000000e+00 0.000000e+00 
0.000000e+00 0.000000e+00 0.000000e+00 
0.000000e+00 0.000000e+00 0.000000e+00 
0.000000e+00 0.000000e+00 0.000000e+00 
0.000000e+00 0.000000e+00 0.000000e+00 
0.000000e+00 0.000000e+00 0.000000e+00 
0.000000e+00 0.000000e+00 0.000000e+00 
0.000000e+00 0.000000e+00 0.000000e+00 
0.000000e+00 0.000000e+00 0.000000e+00 
0.000000e+00 0.000000e+00 0.000000e+00 
0.000000e+00 0.000000e+00 0.000000e+00 
0.000000e+00 0.000000e+00 0.000000e+00 
0.000000e+00 0.000000e+00 0.000000e+00 
0.000000e+00 0.000000e+00 0.000000e+00 
0.000000e+00 0.000000e+00 0.000000e+00 
0.000000e+00 0.000000e+00 0.000000e+00 
0.000000e+00 0.000000e+00 0.000000e+00 
0.000000e+00 0.000000e+00 0.000000e+00 
0.000000e+00 0.000000e+00 0.000000e+00 
0.000000e+00 0.000000e+00 0.000000e+00 
0.000000e+00 0.000000e+00 0.000000e+00 
0.000000e+00 0.000000e+00 0.000000e+00 
0.000000e+00 0.000000e+00 0.000000e+00 
0.000000e+00 0.000000e+00 0.000000e+00 
0.000000e+00 0.000000e+00 0.000000e+00 
0.000000e+00 0.000000e+00 0.000000e+00 
0.000000e+00 0.000000e+00 0.000000e+00 
0.000000e+00 0.000000e+00 0.000000e+00 
0.000000e+00 0.000000e+00 0.000000e+00 
0.000000e+00 0.000000e+00 0.000000e+00 
0.000000e+00 0.000000e+00 0.000000e+00 
0.000000e+00 0.000000e+00 0.000000e+00 
0.000000e+00 0.000000e+00 0.000000e+00 
0.000000e+00 0.000000e+00 0.000000e+00 
0.000000e+00 0.000000e+00 0.000000e+00 
0.000000e+00 0.000000e+00 0.000000e+00 
0.000000e+00 0.000000e+00 0.000000e+00 
0.000000e+00 0.000000e+00 0.000000e+00 
0.000000e+00 0.000000e+00 0.000000e+00 
0.000000e+00 0.000000e+00 0.000000e+00 
0.000000e+00 0.000000e+00 0.000000e+00 
0.000000e+00 0.000000e+00 0.000000e+00 
0.000000e+00 0.000000e+00 0.000000e+00 
0.000000e+00 0.000000e+00 0.000000e+00 
0.000000e+00 0.000000e+00 0.000000e+00 
0.000000e+00 0.000000e+00 0.000000e+00 
0.000000e+00 0.000000e+00 0.000000e+00 
0.000000e+00 0.000000e+00 0.000000e+00 
0.000000e+00 0.000000e+00 0.000000e+00 
0.000000e+00 0.000000e+00 0.000000e+00 
0.000000e+00 0.000000e+00 0.000000e+00 
0.000000e+00 0.000000e+00 0.000000e+00 
0.000000e+00 0.000000e+00 0.000000e+00 
0.000000e+00 0.000000e+00 0.000000e+00 
0.000000e+00 0.000000e+00 0.000000e+00 
0.000000e+00 0.000000e+00 0.000000e+00 
0.000000e+00 0.000000e+00 0.000000e+00 
0.000000e+00 0.000000e+00 0.000000e+00 
0.000000e+00 0.000000e+00 0.000000e+00 
0.000000e+00 0.000000e+00 0.000000e+00 
0.000000e+00 0.000000e+00 0.000000e+00 
0.000000e+00 0.000000e+00 0.000000e+00 
0.000000e+00 0.000000e+00 0.000000e+00 
0.000000e+00 0.000000e+00 0.000000e+00 
0.000000e+00 0.000000e+00 0.000000e+00 
0.000000e+00 0.000000e+00 0.000000e+00 
0.000000e+00 0.000000e+00 0.000000e+00 
0.000000e+00 0.000000e+00 0.000000e+00 
0.000000e+00 0.000000e+00 0.000000e+00 
0.000000e+00 0.000000e+00 0.000000e+00 
0.000000e+00 0.000000e+00 0.000000e+00 
0.000000e+00 0.000000e+00 0.000000e+00 
0.000000e+00 0.000000e+00 0.000000e+00 
0.000000e+00 0.000000e+00 0.000000e+00 
0.000000e+00 0.000000e+00 0.000000e+00 
0.000000e+00 0.000000e+00 0.000000e+00 
0.000000e+00 0.000000e+00 0.000000e+00 
0.000000e+00 0.000000e+00 0.000000e+00 
0.000000e+00 0.000000e+00 0.000000e+00 
0.000000e+00 0.000000e+00 0.000000e+00 
0.000000e+00 0.000000e+00 0.000000e+00 
0.000000e+00 0.000000e+00 0.000000e+00 
0.000000e+00 0.000000e+00 0.000000e+00 
0.000000e+00 0.000000e+00 0.000000e+00 
0.000000e+00 0.000000e+00 0.000000e+00 
0.000000e+00 0.000000e+00 0.000000e+00 
0.000000e+00 0.000000e+00 0.000000e+00 
0.000000e+00 0.000000e+00 0.000000e+00 
0.000000e+00 0.000000e+00 0.000000e+00 
0.000000e+00 0.000000e+00 0.000000e+00 
0.000000e+00 0.000000e+00 0.000000e+00 
0.000000e+00 0.000000e+00 0.000000e+00 
0.000000e+00 0.000000e+00 0.000000e+00 
0.000000e+00 0.000000e+00 0.000000e+00 
0.000000e+00 0.000000e+00 0.000000e+00 
0.000000e+00 0.000000e+00 0.000000e+00 
0.000000e+00 0.000000e+00 0.000000e+00 
0.000000e+00 0.000000e+00 0.000000e+00 
0.000000e+00 0.000000e+00 0.000000e+00 
0.000000e+00 0.000000e+00 0.000000e+00 
0.000000e+00 0.000000e+00 0.000000e+00 
0.000000e+00 0.000000e+00 0.000000e+00 
0.000000e+00 0.000000e+00 0.000000e+00 
0.000000e+00 0.000000e+00 0.000000e+00 
0.000000e+00 0.000000e+00 0.000000e+00 
0.000000e+00 0.000000e+00 0.000000e+00 
0.000000e+00 0.000000e+00 0.000000e+00 
0.000000e+00 0.000000e+00 0.000000e+00 
0.000000e+00 0.000000e+00 0.000000e+00 
0.000000e+00 0.000000e+00 0.000000e+00 
0.000000e+00 0.000000e+00 0.000000e+00 
0.000000e+00 0.000000e+00 0.000000e+00 
0.000000e+00 0.000000e+00 0.000000e+00 
0.000000e+00 0.000000e+00 0.000000e+00 
0.000000e+00 0.000000e+00 0.000000e+00 
0.000000e+00 0.000000e+00 0.000000e+00 
0.000000e+00 0.000000e+00 0.000000e+00 
0.000000e+00 0.000000e+00 0.000000e+00 
0.000000e+00 0.000000e+00 0.000000e+00 
0.000000e+00 0.000000e+00 0.000000e+00 
0.000000e+00 0.000000e+00 0.000000e+00 
0.000000e+00 0.000000e+00 0.000000e+00 
0.000000e+00 0.000000e+00 0.000000e+00 
0.000000e+00 0.000000e+00 0.000000e+00 
0.000000e+00 0.000000e+00 0.000000e+00 
0.000000e+00 0.000000e+00 0.000000e+00 
0.000000e+00 0.000000e+00 0.000000e+00 
0.000000e+00 0.000000e+00 0.000000e+00 
0.000000e+00 0.000000e+00 0.000000e+00 
0.000000e+00 0.000000e+00 0.000000e+00 
0.000000e+00 0.000000e+00 0.000000e+00 
0.000000e+00 0.000000e+00 0.000000e+00 
0.000000e+00 0.000000e+00 0.000000e+00 
0.000000e+00 0.000000e+00 0.000000e+00 
0.000000e+00 0.000000e+00 0.000000e+00 
0.000000e+00 0.000000e+00 0.000000e+00 
0.000000e+00 0.000000e+00 0.000000e+00 
0.000000e+00 0.000000e+00 0.000000e+00 
0.000000e+00 0.000000e+00 0.000000e+00 
0.000000e+00 0.000000e+00 0.000000e+00 
0.000000e+00 0.000000e+00 0.000000e+00 
0.000000e+00 0.000000e+00 0.000000e+00 
0.000000e+00 0.000000e+00 0.000000e+00 
0.000000e+00 0.000000e+00 0.000000e+00 
0.000000e+00 0.000000e+00 0.000000e+00 
0.000000e+00 0.000000e+00 0.000000e+00 
0.000000e+00 0.000000e+00 0.000000e+00 
0.000000e+00 0.000000e+00 0.000000e+00 
0.000000e+00 0.000000e+00 0.000000e+00 
0.000000e+00 0.000000e+00 0.000000e+00 
0.000000e+00 0.000000e+00 0.000000e+00 
0.000000e+00 0.000000e+00 0.000000e+00 
0.000000e+00 0.000000e+00 0.000000e+00 
0.000000e+00 0.000000e+00 0.000000e+00 
0.000000e+00 0.000000e+00 0.000000e+00 