# vtk DataFile Version 3.1
*description-name of input file* step:101 
ASCII
DATASET UNSTRUCTURED_GRID
POINTS 1605 FLOAT
-7.048885e-09 -5.730033e-09 1.923573e-10
-7.630122e-09 -4.553338e-09 -5.762915e-10
-6.159805e-09 -5.127911e-09 -7.480891e-10
-7.550520e-09 -4.303520e-09 1.893380e-09
-5.381833e-09 -6.008609e-09 -1.886908e-10
1.203211e-08 7.126359e-09 -1.063332e-08
1.367659e-08 7.176257e-09 -1.068363e-08
1.262482e-08 5.883171e-09 -1.172933e-08
-5.872823e-09 -6.005032e-09 9.960020e-10
-6.186899e-09 -3.020751e-09 7.375224e-10
-4.321769e-09 -4.576588e-09 -1.204988e-09
-6.309316e-09 -2.889145e-09 -6.966132e-10
-5.617622e-09 -5.193100e-09 2.423952e-09
-5.981187e-09 -3.629003e-09 1.822897e-09
-5.115397e-09 -3.810300e-09 -1.585878e-09
-7.259622e-09 -3.940188e-09 3.265761e-09
-3.312458e-09 -5.460572e-09 2.450739e-10
-6.884104e-09 -1.536272e-09 1.243409e-10
-5.349147e-09 -1.632662e-09 -1.176688e-09
-3.941110e-09 -4.007572e-09 -3.632358e-09
-5.215119e-09 -2.758308e-09 -2.728915e-09
-4.163610e-09 -2.162411e-09 -3.848445e-09
-6.202651e-09 -2.603217e-09 2.438610e-09
-6.235523e-09 9.492850e-11 -2.528428e-09
-6.503602e-09 -1.378445e-10 -9.384179e-10
-3.718965e-09 -4.669322e-09 1.848227e-09
-7.080682e-09 -1.563338e-09 1.526374e-09
-5.876331e-09 -3.594479e-09 4.278512e-09
-4.151820e-09 -2.016921e-09 -4.502079e-10
-7.448453e-09 -1.852593e-09 3.436630e-09
-2.431392e-09 -4.388904e-09 -2.344250e-09
-2.747338e-09 -2.649381e-09 -3.660552e-09
-2.168410e-09 -3.909764e-09 -3.412267e-09
-3.462647e-09 -3.449653e-09 -5.658956e-10
-5.978289e-09 -2.365983e-09 4.304584e-09
-4.546031e-09 -8.063453e-10 -2.487469e-09
-6.159489e-09 -4.538407e-10 2.000759e-09
-4.902749e-09 -4.302467e-10 2.891308e-10
-3.100861e-09 -1.817784e-09 -2.130826e-09
-4.052836e-09 -3.958401e-09 3.796856e-09
-4.996376e-09 4.127286e-10 -8.419046e-10
-3.864910e-09 8.994953e-10 -4.985525e-09
-3.876753e-09 4.008999e-10 -2.907429e-09
-4.844142e-09 1.163637e-09 -3.371075e-09
-4.039141e-09 -2.678448e-09 2.072922e-09
-1.625232e-09 -3.153096e-09 -7.182422e-10
-4.647814e-09 2.531452e-09 -3.985113e-09
-2.896992e-09 -1.479101e-09 -3.688647e-09
-3.292314e-09 -3.434572e-11 -3.069149e-09
-1.670276e-09 -1.499793e-09 -3.458324e-09
-3.602238e-09 5.440170e-10 -9.412780e-10
-2.916160e-09 -1.982972e-09 4.229414e-11
-3.021595e-09 3.468613e-10 -4.529016e-09
-1.760801e-09 -2.187611e-09 -1.942232e-09
-3.961640e-09 -4.239882e-10 8.124059e-09
-2.208194e-09 -1.733484e-09 7.450315e-09
-1.787306e-09 3.141247e-10 7.458612e-09
-1.627795e-09 1.027171e-09 -4.022614e-09
-5.643125e-09 -2.971286e-09 6.021844e-09
-4.117985e-09 2.461260e-09 -2.451431e-09
-3.417548e-09 -2.760534e-09 3.694805e-09
-4.551477e-09 -6.776478e-10 2.508709e-09
-3.893585e-09 -1.599191e-09 1.146626e-09
-5.395024e-09 2.294101e-09 -4.446580e-10
-4.728591e-09 7.752056e-10 1.319290e-09
-6.502696e-09 1.713998e-09 1.652262e-09
-4.527384e-09 -4.379071e-09 5.785049e-09
-4.755343e-09 -3.718584e-09 6.795526e-09
-6.017813e-09 -1.722718e-09 6.686304e-09
-1.919197e-09 1.761478e-09 2.154339e-09
7.361453e-11 2.386868e-09 3.773351e-09
-9.140050e-10 1.879857e-09 9.879162e-10
-4.227985e-09 9.208544e-10 -1.263625e-09
-2.942431e-09 -4.531118e-09 5.471034e-09
1.022519e-09 2.464269e-10 3.749176e-09
8.217009e-10 1.053544e-09 4.302271e-09
7.174458e-11 6.774630e-10 5.453749e-09
-5.488722e-09 3.347649e-09 9.543892e-10
-4.730593e-09 -1.569188e-09 5.468525e-09
-1.218562e-09 1.183837e-10 -1.522218e-09
-4.475861e-09 -2.247518e-09 4.486564e-09
-3.422288e-09 4.319624e-11 4.758550e-10
-2.380478e-09 -4.092558e-10 -5.133260e-11
-5.856648e-09 2.592086e-09 3.862340e-09
-2.312766e-09 -5.138990e-09 3.716834e-09
-3.052898e-09 2.714729e-09 -3.493377e-09
-2.160380e-09 -3.797498e-09 2.627007e-09
-5.843311e-09 -4.788645e-10 5.581516e-09
-2.607027e-09 1.893748e-09 -2.382956e-09
-4.336685e-09 -7.403237e-11 4.824077e-09
-2.808607e-09 -2.917922e-09 4.815731e-09
-5.685413e-09 -7.113570e-10 4.128216e-09
-3.330728e-09 -8.733548e-10 4.179216e-09
-7.963458e-10 -1.383313e-09 -2.237785e-12
-4.550384e-09 3.444972e-09 2.467806e-09
-3.125242e-09 2.869425e-09 -8.967452e-10
-5.291089e-11 -1.617695e-09 -3.523527e-09
3.097664e-10 -2.750978e-09 -2.634610e-09
-4.066143e-09 -2.292571e-09 8.018738e-09
-5.368798e-09 -1.305678e-09 7.968263e-09
-5.208700e-09 3.155390e-10 7.748390e-09
9.479479e-10 2.167847e-09 3.024843e-09
-3.294989e-09 1.495407e-09 8.089474e-10
-3.517171e-09 2.785626e-09 5.727537e-10
-6.426890e-09 1.297104e-09 5.099816e-09
-4.656398e-09 6.075963e-11 3.730485e-09
-3.638409e-09 -2.515055e-09 6.259836e-09
6.319801e-11 -1.372514e-10 -3.200122e-09
-1.333798e-09 -2.753806e-09 3.528100e-09
-4.906376e-09 1.390188e-09 6.667290e-09
-3.623985e-09 7.649926e-10 3.398953e-09
-4.362558e-09 2.091310e-09 5.430868e-09
-4.302881e-09 1.738940e-09 3.049131e-09
-3.692920e-10 -4.040403e-09 2.665692e-09
8.185581e-10 -3.829218e-09 4.229204e-09
-4.049492e-09 2.394649e-09 1.851505e-09
2.393246e-10 -1.992288e-09 -8.162790e-10
-4.205892e-09 2.899523e-09 4.075472e-09
1.343622e-09 -9.955442e-10 -2.726229e-09
-6.366868e-10 -4.119726e-09 6.180652e-09
-7.142351e-10 -5.807282e-10 1.101014e-09
-2.161248e-09 -3.412408e-09 6.660344e-09
-1.962757e-09 -2.227640e-09 5.412474e-09
-1.593815e-09 -3.080802e-10 2.831372e-09
-1.481952e-09 -1.700917e-09 4.342919e-09
-2.470716e-09 1.472839e-09 3.795104e-09
1.454935e-09 -1.189186e-09 -1.269302e-09
5.491955e-10 8.377902e-10 -1.259389e-09
1.356952e-09 -4.682365e-10 5.874268e-09
-3.263886e-09 1.037209e-09 5.876204e-09
7.960962e-10 7.852528e-10 -3.042769e-09
7.632588e-10 -4.535566e-09 2.899283e-09
-8.972048e-10 -6.138980e-10 4.066972e-09
9.114820e-10 -1.144451e-09 -1.581846e-10
5.307858e-10 -3.939665e-09 5.366584e-09
-3.205856e-09 8.763004e-10 7.264204e-09
-2.683397e-09 2.082682e-09 5.414941e-09
-1.328284e-09 -1.753916e-09 6.473469e-09
1.685068e-09 -4.660952e-09 3.760641e-09
2.108728e-09 -3.745627e-09 2.413127e-09
-2.173606e-10 -1.535428e-09 2.677906e-09
-2.901457e-10 -2.641709e-09 6.931294e-09
1.443476e-09 -1.671243e-09 1.777076e-09
2.124889e-09 -1.215960e-10 -2.192589e-09
-9.682487e-10 1.632717e-09 3.632639e-09
-6.335433e-10 -1.329853e-09 7.818813e-09
1.591244e-09 2.911721e-10 -1.257466e-10
2.321923e-09 -3.472637e-09 4.769027e-09
2.996788e-09 -4.236322e-09 3.738071e-09
1.953022e-09 1.533136e-09 -1.341457e-09
5.011803e-10 -2.148091e-09 6.216369e-09
-1.790376e-09 7.177870e-10 5.225204e-09
2.904519e-09 -4.657720e-10 7.612888e-10
2.736921e-09 3.602729e-10 -3.759021e-09
1.586678e-09 -2.570187e-09 4.959130e-09
3.602890e-09 -3.068866e-09 2.591086e-09
3.309412e-09 7.125137e-10 -2.175298e-09
2.880634e-09 2.527701e-09 -2.668214e-09
3.005574e-09 2.061221e-09 -4.151600e-09
3.866559e-09 9.101684e-10 -3.909714e-09
4.387250e-09 1.300826e-09 -5.061938e-09
1.283196e-09 -1.403650e-09 4.152473e-09
6.798465e-10 -8.700801e-10 7.364710e-09
2.747557e-09 -5.046372e-10 2.066199e-09
1.237071e-09 1.360694e-09 6.768221e-10
2.216990e-09 1.580305e-09 -3.018726e-10
4.626699e-09 1.346028e-09 -3.297918e-09
4.229167e-10 9.932772e-10 7.293686e-09
1.400876e-09 1.013923e-09 2.086888e-09
2.993702e-09 -2.314661e-09 3.545822e-09
2.212235e-09 -2.756344e-10 3.384687e-09
3.563582e-09 1.128913e-10 1.766193e-09
4.530972e-09 2.436154e-09 -3.495749e-09
3.251088e-09 8.943159e-10 -8.654165e-10
3.340306e-09 1.917387e-09 -1.730397e-09
4.830975e-09 2.387797e-09 -4.948483e-09
3.250649e-09 8.515018e-10 6.735972e-10
5.504879e-09 1.683833e-09 -5.698435e-09
5.350989e-09 1.500367e-09 -4.472342e-09
3.447640e-09 9.319733e-12 -1.683957e-10
3.157506e-09 9.193740e-10 2.555171e-09
6.538854e-09 1.497117e-09 -5.594966e-09
5.668132e-09 2.896091e-09 -4.112156e-09
7.236015e-09 2.939722e-09 -6.523468e-09
6.923404e-09 2.402329e-09 -4.619336e-09
7.536043e-09 2.107616e-09 -6.277449e-09
6.320505e-09 3.644244e-09 -5.066352e-09
7.592261e-09 3.798092e-09 -5.675605e-09
8.715791e-09 2.894598e-09 -5.833758e-09
8.490896e-09 2.967117e-09 -6.952758e-09
8.431141e-09 4.084921e-09 -6.992898e-09
9.441913e-09 3.265814e-09 -6.909059e-09
1.047391e-08 4.198639e-09 -7.993407e-09
1.031658e-08 4.933242e-09 -8.103214e-09
9.545307e-09 3.862434e-09 -6.153168e-09
1.102813e-08 4.034060e-09 -6.845210e-09
1.008705e-08 4.650627e-09 -6.657265e-09
1.124787e-08 5.092507e-09 -8.822104e-09
1.133406e-08 6.199020e-09 -7.718203e-09
1.098336e-08 5.312625e-09 -6.739691e-09
1.224807e-08 4.696286e-09 -8.225671e-09
1.119780e-08 6.714435e-09 -9.815578e-09
1.158868e-08 5.883171e-09 -1.080745e-08
1.121008e-08 6.112906e-09 -8.887555e-09
1.203752e-08 4.931275e-09 -9.197568e-09
1.188729e-08 5.643151e-09 -7.307451e-09
1.266393e-08 5.538266e-09 -8.081313e-09
1.344297e-08 5.114842e-09 -9.108483e-09
1.370100e-08 5.402182e-09 -1.044662e-08
1.215243e-08 7.231530e-09 -8.728118e-09
1.413757e-08 6.511125e-09 -9.839670e-09
1.374401e-08 6.238611e-09 -8.577292e-09
1.340236e-08 7.485629e-09 -8.973773e-09
2.085006e-09 1.556720e-09 -8.216650e-10
-4.410743e-09 -3.005578e-09 7.407132e-09
7.386029e-09 2.523669e-09 -6.400459e-09
7.414138e-09 3.368907e-09 -6.099537e-09
1.232846e-08 6.504765e-09 -1.118132e-08
2.243860e-09 1.106098e-09 6.752096e-10
-4.299307e-09 4.783728e-10 -8.915913e-10
8.154026e-09 3.346345e-09 -5.754682e-09
5.513816e-10 6.159853e-11 7.329198e-09
-3.346833e-10 4.780870e-10 -1.390803e-09
-3.196587e-09 -9.260651e-10 -2.599988e-09
7.863456e-09 2.953419e-09 -6.738113e-09
-4.481063e-09 1.812449e-09 -2.911253e-09
-5.615643e-09 1.244602e-09 1.485776e-09
-7.327389e-11 1.343131e-09 3.967455e-09
1.320074e-09 -9.359433e-10 5.013371e-09
1.039524e-08 4.565940e-09 -8.048310e-09
-4.528254e-09 -3.908936e-09 -2.609118e-09
-3.783331e-09 2.590137e-09 1.212130e-09
-3.113078e-09 -2.839228e-09 4.255268e-09
-5.995709e-09 2.530824e-09 1.303325e-09
1.100574e-08 4.673343e-09 -6.792451e-09
2.473306e-10 8.353701e-10 6.373718e-09
3.061968e-10 3.502694e-10 -2.229756e-09
4.476577e-10 1.720206e-09 4.037811e-09
-4.603227e-09 -1.908353e-09 4.977544e-09
-1.648277e-09 -2.490723e-09 4.470287e-09
-4.033778e-09 3.115299e-09 1.520280e-09
-2.208807e-09 -2.074587e-09 -3.559438e-09
1.315070e-08 6.529714e-09 -1.120648e-08
[...]
POINT_DATA 1605
VECTORS vector_force float
1.005678e+03 -9.800104e+02 -6.908243e+02 
-2.486934e+02 -2.017242e+02 -5.987995e+00 
-7.171529e+02 5.890871e+02 8.855268e+02 
1.286694e+02 -1.722833e+02 -5.781658e+02 
-2.493738e+02 2.851668e+02 5.953144e+02 
8.105084e+02 1.373735e+02 -1.033721e+03 
8.663470e+02 -4.294538e+02 -6.844692e+02 
-3.887899e+01 -1.318905e+03 6.937578e+02 
3.185355e+02 -3.533056e+02 -1.360272e+02 
-3.519898e+02 -1.842242e+02 4.224466e+02 
2.680721e+02 7.743211e+01 4.607902e+02 
1.586764e+02 -6.886123e+01 8.271026e+02 
4.051889e+02 5.277094e+02 -3.565782e+02 
3.724664e+01 -3.618287e+02 -4.402677e+02 
-8.301845e+02 1.821161e+02 6.529749e+02 
4.552820e+02 2.452497e+01 -9.234427e+02 
4.864524e+02 1.603646e+02 -6.369581e+02 
5.376035e+02 -3.598946e+01 9.795808e+01 
-3.356747e+02 -5.858661e+02 -1.156580e+02 
-6.874279e+02 -5.511734e+02 1.185806e+02 
3.703697e+02 -8.212560e+02 -7.203272e+02 
5.955450e+01 -9.015422e+02 -1.495947e+03 
-2.468317e+02 -1.583240e+02 -9.853436e+01 
-5.128643e+02 -1.436588e+03 -3.094645e+02 
-1.255288e+03 -9.573840e+02 -6.819943e+02 
-4.130571e+02 1.777837e+02 -8.888407e+02 
3.177209e+02 3.982944e+01 -4.868041e+02 
-3.972961e+02 -8.202150e+01 -6.793771e+02 
8.302593e+01 -3.625899e+02 2.787655e+01 
-3.098610e+02 -3.811730e+02 -1.991225e+02 
-5.225066e+02 -8.818833e+02 2.769851e+02 
-4.125244e+01 6.546523e+01 1.853860e+02 
-1.330044e+03 -6.099983e+02 6.257717e+02 
-1.074734e+02 4.864114e+01 7.922883e+02 
-4.447194e+02 -6.499953e+02 -2.298601e+01 
-2.701148e+02 -4.128599e+02 1.696445e+02 
-9.915244e+02 -4.648511e+02 -9.179055e+02 
-3.867188e+02 -9.961897e+02 -1.964176e+02 
4.594077e+01 -7.274367e+01 5.027742e+01 
-2.926767e+02 -1.587498e+02 6.330038e+01 
-9.348538e+02 -3.314768e+02 -1.511845e+02 
-5.740249e+02 4.972716e+02 4.968283e+02 
3.592331e+02 4.933268e+02 -3.098163e+02 
2.281687e+02 3.141374e+02 6.743919e+02 
-1.215178e+02 -3.817172e+02 2.369398e+02 
1.581639e+02 -5.735265e+02 3.407554e+01 
7.242312e+02 2.490414e+02 5.200532e+02 
1.638175e+02 -8.380392e+02 -7.812526e+02 
-2.829540e+02 8.788456e+00 -9.562591e+02 
4.816932e+02 1.099931e+02 -5.406943e-01 
-7.146562e+02 -8.709599e+02 -9.474186e+02 
7.166999e+01 1.336074e+02 9.499436e+01 
3.138124e+02 6.624395e+02 -8.110016e+02 
-1.126859e+02 4.682001e+02 -4.502538e+02 
-2.862431e+02 -8.198964e+02 -1.437069e+02 
3.026605e+02 -6.498335e+01 -1.149894e+02 
2.227188e+02 2.102393e+02 -1.112155e+02 
1.223704e+03 1.709258e+01 -4.220947e+02 
-2.412270e+02 7.366243e+02 -3.540782e+02 
3.654316e+02 -2.392119e+02 7.949204e+02 
1.923053e+02 -3.845857e+02 3.868222e+02 
-7.304732e+02 -5.163510e+02 -2.332098e+01 
-1.143073e+02 -4.759157e+02 -1.377596e+02 
3.671192e+02 -5.884655e+02 2.482897e+02 
-7.264395e+02 -9.118716e+00 1.764904e+02 
-9.383048e+02 -8.256423e+02 8.742289e+02 
-3.178131e+02 -6.334314e-01 -8.665300e+02 
-5.581724e+02 -1.711509e+02 -4.656381e+02 
3.590453e+02 5.314529e+02 7.991435e+02 
-5.789419e+02 1.784496e+02 6.243989e+02 
-2.592422e+02 2.222379e+02 2.083565e+02 
-1.696403e+02 -3.332797e+02 4.768929e+02 
1.375924e+02 -7.315341e+02 1.003046e+03 
-3.008913e+01 8.418637e+02 -3.093821e+02 
-4.922326e+02 5.196278e+01 5.101266e+00 
-3.334572e+02 6.001744e+01 3.743126e+02 
-4.489449e+02 3.042004e+02 3.400280e+02 
-2.538969e+02 -7.555320e+02 -5.084689e+02 
-2.618316e+00 -2.427544e+00 2.899633e+02 
-1.386743e+02 6.416665e+02 -5.712243e+01 
-8.001963e+01 -2.680700e+02 -3.548175e+02 
6.337294e+02 3.993477e+02 2.898789e+02 
5.356168e+02 1.789706e+02 -2.920377e+02 
-6.346140e+02 5.332291e+01 -7.457117e+02 
4.217230e+02 9.471248e-01 7.062048e+02 
9.933264e+02 -1.014042e+03 6.113016e+02 
7.665204e+02 -6.123547e+02 -5.351846e+02 
9.742570e+01 -7.672926e+00 5.280934e+02 
5.959140e+02 -1.496086e+03 6.170243e+02 
-2.631981e+02 -4.548487e+01 3.974410e+01 
5.142805e+01 -1.578968e+01 -3.615990e+02 
4.539291e+01 -9.191157e+02 3.089722e+02 
5.102057e+02 -4.261356e+01 4.282871e+01 
3.092381e+02 2.341650e+02 -1.617107e+02 
-4.380462e+01 2.249060e+02 2.446428e+02 
4.821293e+02 -3.985433e+02 -2.647713e+02 
2.905071e+02 -6.988036e+01 7.874893e+02 
-2.807602e+02 -1.232200e+02 1.485862e+03 
3.179985e+02 -5.315121e+02 9.523676e+02 
-1.814485e+02 -2.648563e+02 -3.204842e+02 
-4.960565e+01 -1.392264e+02 3.151411e+02 
-9.145536e+01 -1.147058e+02 3.518822e+02 
2.736353e+02 -8.840351e+02 2.808137e+02 
-1.699090e+02 -6.719233e+01 -6.335789e+02 
1.209147e+02 -3.065716e+02 -4.437095e+02 
-7.501667e+02 -5.647788e+02 8.250550e+00 
-1.240191e+02 -4.722998e+02 -2.259448e+00 
4.336201e+02 3.583968e+02 -1.382349e+02 
4.369661e+02 5.106434e+02 6.876733e+02 
-4.726812e+02 -1.676728e+02 1.887534e+02 
-3.860138e+02 5.045473e+01 4.204139e+01 
-1.522454e+02 -5.758760e+02 -7.420418e+02 
-4.871050e+02 -2.488076e+02 1.916046e+02 
2.520952e+02 6.298908e+02 7.633993e+01 
-5.152251e+01 -2.506882e+02 5.059046e+02 
-6.559998e+02 2.392463e+02 2.269287e+02 
5.759948e+02 6.471303e+02 1.191263e+02 
-1.491517e+03 4.156711e+02 -9.194273e+01 
7.136726e+01 -1.206156e+02 -7.667869e+01 
7.266679e+02 1.287910e+02 2.730237e+02 
-2.430987e+02 3.564728e+02 5.394006e+01 
-3.204167e+02 -5.137107e+02 -2.539914e+01 
5.730013e+01 -9.686762e+01 -3.261633e+00 
2.448062e+02 2.927332e+02 -3.596014e+02 
6.826624e+02 -3.935246e+02 3.633942e+02 
9.853601e+00 -2.031596e+02 -3.539468e+02 
1.714148e+01 -2.667313e+01 1.737902e+02 
5.608403e+02 2.402190e+02 1.640415e+01 
-3.356477e+02 4.465114e+02 -3.926798e+02 
-5.688594e+02 -3.442555e+02 5.176696e+02 
2.428201e+02 1.737742e+02 4.568585e+02 
-2.244259e+02 -1.411536e+02 -2.124634e+02 
1.330691e+02 -4.330485e+02 2.342983e+02 
2.870589e+02 2.469855e+02 1.615763e+02 
8.441731e+02 -5.617084e+02 3.933809e+02 
5.752593e+02 -2.552647e+02 -1.373770e+02 
-3.708309e+02 4.271194e+02 3.150555e+02 
2.217350e+02 1.879061e+02 1.997651e+01 
1.123133e+03 8.918543e+02 -2.174453e+01 
-4.538322e+02 -2.076692e+02 -5.932882e+02 
1.864180e+02 -1.706468e+02 3.597003e+02 
4.724495e+02 2.585289e+02 -4.887598e+02 
1.650104e+01 4.755052e+01 5.707243e+02 
2.022425e+02 1.721432e+02 -9.864606e+02 
6.242322e+02 -7.545396e+01 2.110405e+02 
6.836026e+02 -9.211553e+02 3.494675e+01 
1.409418e+02 -3.982945e+01 -2.110229e+02 
-2.974224e+02 5.821992e+02 2.702302e+02 
7.011897e+02 7.990378e+02 -1.439536e+01 
6.401639e+02 -2.686780e+02 6.544421e+02 
6.063039e+02 -2.062910e+02 -2.739558e+02 
-4.251245e+02 -2.259761e+02 -1.034060e+02 
-3.957635e+02 -5.225117e+01 4.555216e+02 
7.282673e+02 4.896721e+02 -1.994337e+03 
4.237389e+02 7.815099e+02 4.737560e+02 
-2.682129e-01 3.855880e+02 3.339115e+02 
-9.519870e+02 -5.315888e+02 -3.952073e+02 
-6.746730e+02 6.567218e+01 2.118788e+02 
1.453478e+03 6.793411e+02 4.893393e+02 
7.245383e+02 3.630042e+02 2.562260e+02 
-3.272075e+02 1.885488e+02 1.609162e+03 
3.672767e+02 3.312741e+02 -7.553314e-03 
2.637751e+02 -1.103680e+02 2.298112e+02 
-8.204142e+02 -3.954125e+01 4.364549e+02 
6.211150e+02 9.698264e+01 2.683003e+02 
2.184203e+02 -3.264360e+02 4.220911e+02 
8.712010e+02 2.287631e+02 9.001413e+02 
-2.736840e+02 4.481192e+01 1.105565e+02 
-6.499279e+01 3.653012e+02 2.097506e+02 
-4.018166e+02 -1.593093e+02 1.387175e+02 
5.752010e+02 -5.217336e+01 5.351614e+02 
-1.114991e+03 -5.814369e+02 4.471998e+02 
9.399981e+02 6.455847e+02 9.084497e+02 
-4.012560e+02 -3.372108e+02 -1.012225e+02 
2.579573e+02 1.521311e+02 6.017579e+02 
-4.772571e+02 -4.010534e+02 6.480713e+02 
-3.745667e+02 -1.104414e+03 3.678500e+02 
-9.244612e+02 6.884986e+00 8.242884e+02 
8.167041e+02 -2.174513e+02 8.847261e+02 
6.078989e+02 -4.653144e+02 4.724963e+02 
1.197379e+03 1.133459e+03 -9.716928e+02 
-1.495132e+03 -5.501534e+02 -3.249657e+02 
-3.499815e+02 5.106660e+02 5.996704e+02 
-4.138885e+02 -4.797266e+02 1.814986e+02 
7.923060e+01 -1.646713e+03 4.695071e+02 
-2.077825e+02 -8.319464e+02 1.389633e+02 
3.296750e+02 -3.145912e+02 -1.949899e+02 
6.404944e+02 -7.643454e+02 8.090984e+02 
-6.694847e+01 -7.884943e+02 -9.609750e+02 
-5.455988e+02 -2.690700e+02 1.177756e+01 
3.406874e+01 -4.622090e+02 6.025359e+02 
9.536820e+01 -1.810119e+02 4.933224e+02 
-6.749376e+01 2.627006e+02 2.756686e+01 
-3.920543e+01 1.158361e+02 6.537936e+02 
2.948307e+02 3.437107e+02 -8.570254e+01 
-9.544481e+01 -1.384450e+02 -6.573775e+02 
-3.992891e+02 3.495406e+02 3.476886e+01 
-5.021502e+02 -1.737691e+02 -1.110522e+02 
-2.505665e+01 7.577631e+01 -2.737659e+01 
-1.097812e+02 -5.310973e+02 2.522553e+02 
-2.978413e+02 7.055078e+02 -6.991290e+02 
5.160778e+01 4.058576e+02 -1.795501e+02 
6.332909e+02 1.157963e+02 2.518408e+01 
-2.399565e+02 5.852553e+02 -1.475141e+03 
3.905127e+02 8.530670e+02 -6.433636e+02 
5.054985e+02 3.845474e+02 -1.397448e+01 
-5.476594e+02 1.154668e+03 -5.699357e+02 
2.444691e+01 -2.269411e+02 3.320268e+02 
3.208233e+01 -8.419016e+02 -3.979272e+02 
-4.330622e+02 -7.605250e+01 -3.410650e+02 
2.489361e+02 5.210059e+01 -2.928422e+02 
-3.791487e+02 8.152174e+02 8.359427e+01 
-4.312053e+02 8.984217e+02 2.147271e+02 
0.000000e+00 0.000000e+00 0.000000e+00 
0.000000e+00 0.000000e+00 0.000000e+00 
0.000000e+00 0.000000e+00 0.000000e+00 
0.000000e+00 0.000000e+00 0.000000e+00 
0.000000e+00 0.000000e+00 0.000000e+00 
0.000000e+00 0.000000e+00 0.000000e+00 
0.000000e+00 0.000000e+00 0.000000e+00 
0.000000e+00 0.000000e+00 0.000000e+00 
0.000000e+00 0.000000e+00 0.000000e+00 
0.000000e+00 0.000000e+00 0.000000e+00 
0.000000e+00 0.000000e+00 0.000000e+00 
0.000000e+00 0.000000e+00 0.000000e+00 
0.000000e+00 0.000000e+00 0.000000e+00 
0.000000e+00 0.000000e+00 0.000000e+00 
0.000000e+00 0.000000e+00 0.000000e+00 
0.000000e+00 0.000000e+00 0.000000e+00 
0.000000e+00 0.000000e+00 0.000000e+00 
0.000000e+00 0.000000e+00 0.000000e+00 
0.000000e+00 0.000000e+00 0.000000e+00 
0.000000e+00 0.000000e+00 0.000000e+00 
0.000000e+00 0.000000e+00 0.000000e+00 
0.000000e+00 0.000000e+00 0.000000e+00 
0.000000e+00 0.000000e+00 0.000000e+00 
0.000000e+00 0.000000e+00 0.000000e+00 
0.000000e+00 0.000000e+00 0.000000e+00 
0.000000e+00 0.000000e+00 0.000000e+00 
0.000000e+00 0.000000e+00 0.000000e+00 
0.000000e+00 0.000000e+00 0.000000e+00 
0.000000e+00 0.000000e+00 0.000000e+00 
0.000000e+00 0.000000e+00 0.000000e+00 
0.000000e+00 0.000000e+00 0.000000e+00 
0.000000e+00 0.000000e+00 0.000000e+00 
0.000000e+00 0.000000e+00 0.000000e+00 
0.000000e+00 0.000000e+00 0.000000e+00 
0.000000e+00 0.000000e+00 0.000000e+00 
0.000000e+00 0.000000e+00 0.000000e+00 
0.000000e+00 0.000000e+00 0.000000e+00 
0.000000e+00 0.000000e+00 0.000000e+00 
0.000000e+00 0.000000e+00 0.000000e+00 
0.000000e+00 0.000000e+00 0.000000e+00 
0.000000e+00 0.000000e+00 0.000000e+00 
0.000000e+00 0.000000e+00 0.000000e+00 
0.000000e+00 0.000000e+00 0.000000e+00 
0.000000e+00 0.000000e+00 0.000000e+00 
0.000000e+00 0.000000e+00 0.000000e+00 
0.000000e+00 0.000000e+00 0.000000e+00 
0.000000e+00 0.000000e+00 0.000000e+00 
0.000000e+00 0.000000e+00 0.000000e+00 
0.000000e+00 0.000000e+00 0.000000e+00 
0.000000e+00 0.000000e+00 0.000000e+00 
0.000000e+00 0.000000e+00 0.000000e+00 
0.000000e+00 0.000000e+00 0.000000e+00 
0.000000e+00 0.000000e+00 0.000000e+00 
0.000000e+00 0.000000e+00 0.000000e+00 
0.000000e+00 0.000000e+00 0.000000e+00 
0.000000e+00 0.000000e+00 0.000000e+00 
0.000000e+00 0.000000e+00 0.000000e+00 
0.000000e+00 0.000000e+00 0.000000e+00 
0.000000e+00 0.000000e+00 0.000000e+00 
0.000000e+00 0.000000e+00 0.000000e+00 
0.000000e+00 0.000000e+00 0.000000e+00 
0.000000e+00 0.000000e+00 0.000000e+00 
0.000000e+00 0.000000e+00 0.000000e+00 
0.000000e+00 0.000000e+00 0.000000e+00 
0.000000e+00 0.000000e+00 0.000000e+00 
0.000000e+00 0.000000e+00 0.000000e+00 
0.000000e+00 0.000000e+00 0.000000e+00 
0.000000e+00 0.000000e+00 0.000000e+00 
0.000000e+00 0.000000e+00 0.000000e+00 
0.000000e+00 0.000000e+00 0.000000e+00 
0.000000e+00 0.000000e+00 0.000000e+00 
0.000000e+00 0.000000e+00 0.000000e+00 
0.000000e+00 0.000000e+00 0.000000e+00 
0.000000e+00 0.000000e+00 0.000000e+00 
0.000000e+00 0.000000e+00 0.000000e+00 
0.000000e+00 0.000000e+00 0.000000e+00 
0.000000e+00 0.000000e+00 0.000000e+00 
0.000000e+00 0.000000e+00 0.000000e+00 
0.000000e+00 0.000000e+00 0.000000e+00 
0.000000e+00 0.000000e+00 0.000000e+00 
0.000000e+00 0.000000e+00 0.000000e+00 
0.000000e+00 0.000000e+00 0.000000e+00 
0.000000e+00 0.000000e+00 0.000000e+00 
0.000000e+00 0.000000e+00 0.000000e+00 
0.000000e+00 0.000000e+00 0.000000e+00 
0.000000e+00 0.000000e+00 0.000000e+00 
0.000000e+00 0.000000e+00 0.000000e+00 
0.000000e+00 0.000000e+00 0.000000e+00 
0.000000e+00 0.000000e+00 0.000000e+00 
0.000000e+00 0.000000e+00 0.000000e+00 
0.000000e+00 0.000000e+00 0.000000e+00 
0.000000e+00 0.000000e+00 0.000000e+00 
0.000000e+00 0.000000e+00 0.000000e+00 
0.000000e+00 0.000000e+00 0.000000e+00 
0.000000e+00 0.000000e+00 0.000000e+00 
0.000000e+00 0.000000e+00 0.000000e+00 
0.000000e+00 0.000000e+00 0.000000e+00 
0.000000e+00 0.000000e+00 0.000000e+00 
0.000000e+00 0.000000e+00 0.000000e+00 
0.000000e+00 0.000000e+00 0.000000e+00 
0.000000e+00 0.000000e+00 0.000000e+00 
0.000000e+00 0.000000e+00 0.000000e+00 
0.000000e+00 0.000000e+00 0.000000e+00 
0.000000e+00 0.000000e+00 0.000000e+00 
0.000000e+00 0.000000e+00 0.000000e+00 
0.000000e+00 0.000000e+00 0.000000e+00 
0.000000e+00 0.000000e+00 0.000000e+00 
0.000000e+00 0.000000e+00 0.000000e+00 
0.000000e+00 0.000000e+00 0.000000e+00 
0.000000e+00 0.000000e+00 0.000000e+00 
0.000000e+00 0.000000e+00 0.000000e+00 
0.000000e+00 0.000000e+00 0.000000e+00 
0.000000e+00 0.000000e+00 0.000000e+00 
0.000000e+00 0.000000e+00 0.000000e+00 
0.000000e+00 0.000000e+00 0.000000e+00 
0.000000e+00 0.000000e+00 0.000000e+00 
0.000000e+00 0.000000e+00 0.000000e+00 
0.000000e+00 0.000000e+00 0.000000e+00 
0.000000e+00 0.000000e+00 0.000000e+00 
0.000000e+00 0.000000e+00 0.000000e+00 
0.000000e+00 0.000000e+00 0.000000e+00 
0.000000e+00 0.000000e+00 0.000000e+00 
0.000000e+00 0.000000e+00 0.000000e+00 
0.000000e+00 0.000000e+00 0.000000e+00 
0.000000e+00 0.000000e+00 0.000000e+00 
0.000000e+00 0.000000e+00 0.000000e+00 
0.000000e+00 0.000000e+00 0.000000e+00 
0.000000e+00 0.000000e+00 0.000000e+00 
0.000000e+00 0.000000e+00 0.000000e+00 
0.000000e+00 0.000000e+00 0.000000e+00 
0.000000e+00 0.000000e+00 0.000000e+00 
0.000000e+00 0.000000e+00 0.000000e+00 
0.000000e+00 0.000000e+00 0.000000e+00 
0.000000e+00 0.000000e+00 0.000000e+00 
0.000000e+00 0.000000e+00 0.000000e+00 
0.000000e+00 0.000000e+00 0.000000e+00 
0.000000e+00 0.000000e+00 0.000000e+00 
0.000000e+00 0.000000e+00 0.000000e+00 
0.000000e+00 0.000000e+00 0.000000e+00 
0.000000e+00 0.000000e+00 0.000000e+00 
0.000000e+00 0.000000e+00 0.000000e+00 
0.000000e+00 0.000000e+00 0.000000e+00 
0.000000e+00 0.000000e+00 0.000000e+00 
0.000000e+00 0.000000e+00 0.000000e+00 
0.000000e+00 0.000000e+00 0.000000e+00 
0.000000e+00 0.000000e+00 0.000000e+00 
0.000000e+00 0.000000e+00 0.000000e+00 
0.000000e+00 0.000000e+00 0.000000e+00 
0.000000e+00 0.000000e+00 0.000000e+00 
0.000000e+00 0.000000e+00 0.000000e+00 
0.000000e+00 0.000000e+00 0.000000e+00 
0.000000e+00 0.000000e+00 0.000000e+00 
0.000000e+00 0.000000e+00 0.000000e+00 
0.000000e+00 0.000000e+00 0.000000e+00 
0.000000e+00 0.000000e+00 0.000000e+00 
0.000000e+00 0.000000e+00 0.000000e+00 
0.000000e+00 0.000000e+00 0.000000e+00 
0.000000e+00 0.000000e+00 0.000000e+00 
0.000000e+00 0.000000e+00 0.000000e+00 
0.000000e+00 0.000000e+00 0.000000e+00 
0.000000e+00 0.000000e+00 0.000000e+00 
0.000000e+00 0.000000e+00 0.000000e+00 
0.000000e+00 0.000000e+00 0.000000e+00 
0.000000e+00 0.000000e+00 0.000000e+00 
0.000000e+00 0.000000e+00 0.000000e+00 
0.000000e+00 0.000000e+00 0.000000e+00 
0.000000e+00 0.000000e+00 0.000000e+00 
0.000000e+00 0.000000e+00 0.000000e+00 
0.000000e+00 0.000000e+00 0.000000e+00 
0.000000e+00 0.000000e+00 0.000000e+00 
0.000000e+00 0.000000e+00 0.000000e+00 
0.000000e+00 0.000000e+00 0.000000e+00 
0.000000e+00 0.000000e+00 0.000000e+00 
0.000000e+00 0.000000e+00 0.000000e+00 
0.000000e+00 0.000000e+00 0.000000e+00 
0.000000e+00 0.000000e+00 0.000000e+00 
0.000000e+00 0.000000e+00 0.000000e+00 
0.000000e+00 0.000000e+00 0.000000e+00 
0.000000e+00 0.000000e+00 0.000000e+00 
0.000000e+00 0.000000e+00 0.000000e+00 
0.000000e+00 0.000000e+00 0.000000e+00 
0.000000e+00 0.000000e+00 0.000000e+00 
0.000000e+00 0.000000e+00 0.000000e+00 
0.000000e+00 0.000000e+00 0.000000e+00 
0.000000e+00 0.000000e+00 0.000000e+00 
0.000000e+00 0.000000e+00 0.000000e+00 
0.000000e+00 0.000000e+00 0.000000e+00 
0.000000e+00 0.000000e+00 0.000000e+00 
0.000000e+00 0.000000e+00 0.000000e+00 
0.000000e+00 0.000000e+00 0.000000e+00 
0.000000e+00 0.000000e+00 0.000000e+00 
0.000000e+00 0.000000e+00 0.000000e+00 
0.000000e+00 0.000000e+00 0.000000e+00 
0.000000e+00 0.000000e+00 0.000000e+00 
0.000000e+00 0.000000e+00 0.000000e+00 
0.000000e+00 0.000000e+00 0.000000e+00 
0.000000e+00 0.000000e+00 0.000000e+00 
0.000000e+00 0.000000e+00 0.000000e+00 
0.000000e+00 0.000000e+00 0.000000e+00 
0.000000e+00 0.000000e+00 0.000000e+00 
0.000000e+00 0.000000e+00 0.000000e+00 
0.000000e+00 0.000000e+00 0.000000e+00 
0.000000e+00 0.000000e+00 0.000000e+00 
0.000000e+00 0.000000e+00 0.000000e+00 
0.000000e+00 0.000000e+00 0.000000e+00 
0.000000e+00 0.000000e+00 0.000000e+00 
0.000000e+00 0.000000e+00 0.000000e+00 
0.000000e+00 0.000000e+00 0.000000e+00 
0.000000e+00 0.000000e+00 0.000000e+00 
0.000000e+00 0.000000e+00 0.000000e+00 
0.000000e+00 0.000000e+00 0.000000e+00 
0.000000e+00 0.000000e+00 0.000000e+00 
0.000000e+00 0.000000e+00 0.000000e+00 
0.000000e+00 0.000000e+00 0.000000e+00 
0.000000e+00 0.000000e+00 0.000000e+00 
0.000000e+00 0.000000e+00 0.000000e+00 
0.000000e+00 0.000000e+00 0.000000e+00 
0.000000e+00 0.000000e+00 0.000000e+00 
0.000000e+00 0.000000e+00 0.000000e+00 
0.000000e+00 0.000000e+00 0.000000e+00 
0.000000e+00 0.000000e+00 0.000000e+00 
0.000000e+00 0.000000e+00 0.000000e+00 
0.000000e+00 0.000000e+00 0.000000e+00 
0.000000e+00 0.000000e+00 0.000000e+00 
0.000000e+00 0.000000e+00 0.000000e+00 
0.000000e+00 0.000000e+00 0.000000e+00 
0.000000e+00 0.000000e+00 0.000000e+00 
0.000000e+00 0.000000e+00 0.000000e+00 
0.000000e+00 0.000000e+00 0.000000e+00 
0.000000e+00 0.000000e+00 0.000000e+00 
0.000000e+00 0.000000e+00 0.000000e+00 
0.000000e+00 0.000000e+00 0.000000e+00 
0.000000e+00 0.000000e+00 0.000000e+00 
0.000000e+00 0.000000e+00 0.000000e+00 
0.000000e+00 0.000000e+00 0.000000e+00 
0.000000e+00 0.000000e+00 0.000000e+00 
0.000000e+00 0.000000e+00 0.000000e+00 
0.000000e+00 0.000000e+00 0.000000e+00 
0.000000e+00 0.000000e+00 0.000000e+00 
0.000000e+00 0.000000e+00 0.000000e+00 
0.000000e+00 0.000000e+00 0.000000e+00 
0.000000e+00 0.000000e+00 0.000000e+00 
0.000000e+00 0.000000e+00 0.000000e+00 
0.000000e+00 0.000000e+00 0.000000e+00 
0.000000e+00 0.000000e+00 0.000000e+00 
0.000000e+00 0.000000e+00 0.000000e+00 
0.000000e+00 0.000000e+00 0.000000e+00 
0.000000e+00 0.000000e+00 0.000000e+00 
0.000000e+00 0.000000e+00 0.000000e+00 
0.000000e+00 0.000000e+00 0.000000e+00 
0.000000e+00 0.000000e+00 0.000000e+00 
0.000000e+00 0.000000e+00 0.000000e+00 
0.000000e+00 0.000000e+00 0.000000e+00 
0.000000e+00 0.000000e+00 0.000000e+00 
0.000000e+00 0.000000e+00 0.000000e+00 
0.000000e+00 0.000000e+00 0.000000e+00 
0.000000e+00 0.000000e+00 0.000000e+00 
0.000000e+00 0.000000e+00 0.000000e+00 
0.000000e+00 0.000000e+00 0.000000e+00 
0.000000e+00 0.000000e+00 0.000000e+00 
0.000000e+00 0.000000e+00 0.000000e+00 
0.000000e+00 0.000000e+00 0.000000e+00 
0.000000e+00 0.000000e+00 0.000000e+00 
0.000000e+00 0.000000e+00 0.000000e+00 
0.000000e+00 0.000000e+00 0.000000e+00 
0.000000e+00 0.000000e+00 0.000000e+00 
0.000000e+00 0.000000e+00 0.000000e+00 
0.000000e+00 0.000000e+00 0.000000e+00 
0.000000e+00 0.000000e+00 0.000000e+00 
0.000000e+00 0.000000e+00 0.000000e+00 
0.000000e+00 0.000000e+00 0.000000e+00 
0.000000e+00 0.000000e+00 0.000000e+00 
0.000000e+00 0.000000e+00 0.000000e+00 
0.000000e+00 0.000000e+00 0.000000e+00 
0.000000e+00 0.000000e+00 0.000000e+00 
0.000000e+00 0.000000e+00 0.000000e+00 
0.000000e+00 0.000000e+00 0.000000e+00 