# vtk DataFile Version 3.1
*description-name of input file* step:2601 
ASCII
DATASET UNSTRUCTURED_GRID
POINTS 1605 FLOAT
-7.104812e-09 -5.532879e-09 -2.461282e-10
-7.814956e-09 -4.572877e-09 -5.843587e-10
-6.143333e-09 -4.826214e-09 -7.551522e-10
-7.736081e-09 -4.054580e-09 2.158466e-09
-5.444588e-09 -6.042619e-09 -2.072502e-11
1.200200e-08 6.920436e-09 -1.053592e-08
1.365563e-08 7.004575e-09 -1.106744e-08
1.270900e-08 5.754844e-09 -1.208695e-08
-6.354821e-09 -6.185180e-09 8.934668e-10
-6.246428e-09 -2.826466e-09 8.308841e-10
-4.551249e-09 -4.556702e-09 -1.142179e-09
-6.133051e-09 -2.915035e-09 -3.021357e-10
-5.555455e-09 -5.139821e-09 2.230879e-09
-5.900360e-09 -3.588018e-09 1.691810e-09
-5.267518e-09 -3.461087e-09 -1.570062e-09
-7.369389e-09 -4.142233e-09 3.143085e-09
-3.571490e-09 -5.656809e-09 1.013023e-10
-6.494191e-09 -1.041737e-09 1.796044e-11
-5.339634e-09 -1.452386e-09 -7.698375e-10
-3.766235e-09 -3.994819e-09 -3.136910e-09
-5.153849e-09 -2.501244e-09 -2.998029e-09
-3.960285e-09 -1.880266e-09 -3.857660e-09
-6.497794e-09 -2.371599e-09 2.336279e-09
-5.600634e-09 -1.202549e-10 -2.395426e-09
-6.146469e-09 5.846723e-10 -8.175964e-10
-3.490285e-09 -4.673163e-09 1.982201e-09
-7.269979e-09 -1.041764e-09 1.285687e-09
-5.897134e-09 -3.286350e-09 3.976010e-09
-4.126354e-09 -2.170472e-09 -3.388591e-10
-7.970036e-09 -1.984314e-09 3.096751e-09
-2.385138e-09 -4.391412e-09 -2.280339e-09
-2.828891e-09 -3.199197e-09 -4.098364e-09
-2.224137e-09 -4.250076e-09 -3.332939e-09
-3.647198e-09 -3.609018e-09 -6.291276e-10
-6.059518e-09 -2.235591e-09 4.108385e-09
-4.189620e-09 -7.458543e-10 -2.194822e-09
-5.780606e-09 -5.932522e-10 2.295131e-09
-4.733506e-09 -2.926033e-10 6.124374e-10
-2.842568e-09 -2.111704e-09 -2.004461e-09
-4.123974e-09 -3.960924e-09 3.728321e-09
-4.713265e-09 9.939117e-11 -5.788543e-10
-4.005272e-09 7.215285e-10 -5.094601e-09
-3.982967e-09 5.865464e-10 -3.030963e-09
-4.817274e-09 1.041517e-09 -3.473867e-09
-4.192566e-09 -2.455659e-09 2.221762e-09
-1.532346e-09 -3.134233e-09 -6.876998e-10
-4.647986e-09 2.444414e-09 -4.489611e-09
-2.769760e-09 -1.425381e-09 -3.212389e-09
-3.022287e-09 2.700146e-10 -2.607601e-09
-1.451216e-09 -1.845733e-09 -3.273322e-09
-3.324614e-09 3.868790e-10 -8.051001e-10
-3.196982e-09 -2.081317e-09 2.757315e-10
-3.564396e-09 6.167870e-11 -4.857702e-09
-1.765055e-09 -2.343398e-09 -1.696151e-09
-3.734303e-09 -6.079568e-10 8.327097e-09
-2.028872e-09 -1.958205e-09 7.462241e-09
-1.770691e-09 4.013939e-10 7.464023e-09
-1.486888e-09 7.498572e-10 -4.061905e-09
-5.869036e-09 -3.140342e-09 6.114879e-09
-4.435169e-09 2.481566e-09 -2.624209e-09
-3.720539e-09 -2.791901e-09 3.880360e-09
-4.434503e-09 -3.505972e-10 2.683768e-09
-3.884301e-09 -1.343748e-09 1.468703e-09
-5.515128e-09 2.301422e-09 -3.652807e-10
-5.262509e-09 7.835297e-10 1.144781e-09
-6.558668e-09 1.947460e-09 1.955611e-09
-4.951431e-09 -4.401837e-09 5.778284e-09
-4.670121e-09 -3.806920e-09 7.158262e-09
-6.330584e-09 -1.592011e-09 6.613113e-09
-2.002899e-09 1.809387e-09 2.137613e-09
-1.723351e-10 2.074158e-09 4.012203e-09
-1.137581e-09 2.090826e-09 7.205079e-10
-4.679557e-09 4.226422e-10 -8.067975e-10
-2.942980e-09 -4.326939e-09 5.309176e-09
9.934282e-10 3.440229e-10 3.592123e-09
9.866022e-10 1.054042e-09 4.132609e-09
-9.387557e-11 7.979620e-10 5.566245e-09
-5.582533e-09 3.201193e-09 1.337858e-09
-4.855203e-09 -1.524461e-09 5.449984e-09
-1.085141e-09 -7.028335e-11 -1.402194e-09
-4.706334e-09 -2.078868e-09 4.570060e-09
-3.477109e-09 3.389441e-10 7.566506e-10
-2.116820e-09 -5.451591e-10 -7.225512e-11
-5.803830e-09 2.199236e-09 4.062665e-09
-2.528156e-09 -5.130513e-09 3.441549e-09
-3.027448e-09 2.660993e-09 -3.978116e-09
-2.170697e-09 -3.636222e-09 2.542531e-09
-5.774422e-09 -6.112162e-10 5.237692e-09
-2.917384e-09 1.988447e-09 -2.117168e-09
-4.244026e-09 -8.178455e-11 4.777052e-09
-2.908211e-09 -2.928740e-09 5.202625e-09
-5.711264e-09 -6.767271e-10 3.963572e-09
-3.144086e-09 -1.073773e-09 4.221459e-09
-3.780558e-10 -1.328347e-09 8.506298e-11
-4.387017e-09 3.339068e-09 2.659779e-09
-3.542174e-09 2.721593e-09 -7.583868e-10
-2.041079e-10 -1.464937e-09 -3.295569e-09
1.636608e-10 -2.572783e-09 -2.543340e-09
-3.981970e-09 -2.353636e-09 7.992599e-09
-5.270446e-09 -1.550421e-09 7.578319e-09
-5.403091e-09 2.479139e-10 7.614730e-09
6.520339e-10 2.221877e-09 3.070840e-09
-3.782242e-09 1.457308e-09 9.073312e-10
-4.047507e-09 2.892956e-09 3.742205e-10
-6.501076e-09 1.089595e-09 4.759508e-09
-4.332809e-09 7.055738e-11 3.530621e-09
-3.712479e-09 -2.658683e-09 6.365804e-09
2.538165e-11 -1.054921e-10 -3.142787e-09
-1.374743e-09 -2.691188e-09 3.727075e-09
-5.039028e-09 1.417547e-09 6.720158e-09
-3.612248e-09 7.548707e-10 3.363119e-09
-4.175293e-09 2.291523e-09 5.485347e-09
-4.236427e-09 1.994674e-09 3.019351e-09
-2.622037e-10 -3.999289e-09 2.806835e-09
8.503655e-10 -3.600787e-09 4.493162e-09
-4.019339e-09 2.376282e-09 2.039996e-09
5.305730e-10 -1.763879e-09 -5.136984e-10
-4.237006e-09 2.765239e-09 4.206845e-09
1.458024e-09 -1.105537e-09 -3.603406e-09
-6.915904e-10 -3.999726e-09 6.289194e-09
-6.581840e-10 -4.704288e-10 1.217337e-09
-2.128791e-09 -3.238814e-09 6.444400e-09
-1.952809e-09 -2.270241e-09 5.623523e-09
-1.479815e-09 -3.423386e-10 2.729603e-09
-1.233474e-09 -1.751080e-09 4.451167e-09
-2.717910e-09 1.264744e-09 3.792266e-09
1.976958e-09 -1.213307e-09 -1.512679e-09
7.481028e-10 6.879194e-10 -1.430395e-09
1.415360e-09 -5.843023e-10 5.880271e-09
-3.183913e-09 1.183603e-09 5.921332e-09
8.540441e-10 5.958388e-10 -3.395272e-09
1.090451e-09 -4.671675e-09 3.192195e-09
-8.438739e-10 -7.493469e-10 4.031891e-09
1.140487e-09 -1.105196e-09 -1.125861e-10
6.313932e-10 -3.531059e-09 5.489226e-09
-2.983328e-09 8.541735e-10 7.287940e-09
-2.517764e-09 2.256787e-09 5.534327e-09
-1.133254e-09 -1.941737e-09 6.724477e-09
1.925182e-09 -4.629860e-09 3.842154e-09
2.043334e-09 -3.492107e-09 2.670968e-09
-3.388754e-10 -1.547597e-09 2.928351e-09
-3.663006e-10 -2.742020e-09 7.017516e-09
1.344385e-09 -1.717602e-09 1.805450e-09
1.966676e-09 -3.849068e-10 -2.395911e-09
-1.146186e-09 1.509317e-09 3.575167e-09
-7.454886e-10 -1.394980e-09 8.084392e-09
1.705806e-09 4.552914e-10 -6.605455e-11
2.551297e-09 -3.686345e-09 4.858262e-09
3.233176e-09 -4.059240e-09 3.583191e-09
1.845710e-09 1.073653e-09 -1.371472e-09
4.038711e-10 -2.255399e-09 6.517407e-09
-1.672179e-09 9.865994e-10 5.209520e-09
2.992932e-09 -4.798020e-10 9.579154e-10
2.579985e-09 3.966735e-10 -4.116913e-09
1.908625e-09 -2.775353e-09 5.196458e-09
3.810894e-09 -2.488459e-09 2.475660e-09
3.556859e-09 4.085157e-10 -2.201471e-09
2.749283e-09 2.402172e-09 -2.654058e-09
2.687071e-09 2.398862e-09 -4.226426e-09
3.480790e-09 1.102408e-09 -4.002415e-09
4.474406e-09 1.905914e-09 -5.473760e-09
1.300744e-09 -1.454047e-09 4.469534e-09
6.594995e-10 -7.123658e-10 7.496188e-09
2.696971e-09 -8.516237e-10 2.017411e-09
1.361424e-09 1.325120e-09 4.939489e-10
2.036212e-09 1.480322e-09 -2.523693e-10
4.612201e-09 1.634055e-09 -3.765752e-09
2.495057e-10 1.502574e-09 7.287740e-09
1.293310e-09 1.094590e-09 2.086647e-09
3.033534e-09 -2.153385e-09 3.505124e-09
2.123535e-09 3.637673e-11 3.287028e-09
3.426893e-09 -8.395288e-10 2.057327e-09
4.397572e-09 2.768216e-09 -3.707754e-09
2.951748e-09 6.572700e-10 -8.204418e-10
3.264067e-09 1.480968e-09 -2.025985e-09
4.793878e-09 2.778051e-09 -5.209511e-09
3.532272e-09 1.286165e-09 8.639599e-10
5.273422e-09 1.953202e-09 -5.911240e-09
5.168267e-09 1.603527e-09 -4.786588e-09
3.702962e-09 -8.299351e-11 4.817737e-11
3.128935e-09 1.099036e-09 2.522595e-09
6.523252e-09 1.495540e-09 -5.832682e-09
5.939983e-09 2.664943e-09 -4.223486e-09
7.559844e-09 3.031713e-09 -6.646965e-09
6.858597e-09 2.016353e-09 -4.871496e-09
7.317470e-09 2.158625e-09 -6.402898e-09
6.184802e-09 3.456662e-09 -5.162394e-09
7.180721e-09 3.223288e-09 -5.470874e-09
8.686568e-09 2.760681e-09 -5.637883e-09
8.562286e-09 2.926647e-09 -7.027822e-09
8.726873e-09 4.180686e-09 -6.653950e-09
9.880605e-09 2.965090e-09 -6.614758e-09
1.029931e-08 4.491734e-09 -7.714875e-09
1.027571e-08 5.070671e-09 -7.766214e-09
9.497719e-09 4.004250e-09 -5.758771e-09
1.120558e-08 4.598986e-09 -6.687638e-09
1.021905e-08 4.897377e-09 -6.229259e-09
1.102234e-08 5.051287e-09 -8.487740e-09
1.130592e-08 6.589427e-09 -7.667843e-09
1.137888e-08 5.367040e-09 -6.496045e-09
1.288359e-08 4.944412e-09 -8.212454e-09
1.136064e-08 6.558679e-09 -9.878657e-09
1.155570e-08 5.765755e-09 -1.029699e-08
1.124846e-08 6.002652e-09 -8.972960e-09
1.215933e-08 4.985970e-09 -8.985528e-09
1.158693e-08 5.865798e-09 -7.089273e-09
1.303949e-08 5.641994e-09 -8.153453e-09
1.334214e-08 4.941668e-09 -8.957299e-09
1.396796e-08 4.899146e-09 -1.066839e-08
1.176727e-08 6.757642e-09 -8.718403e-09
1.426385e-08 6.575525e-09 -1.041175e-08
1.413036e-08 6.264192e-09 -9.046235e-09
1.371364e-08 7.548949e-09 -9.180924e-09
1.940961e-09 1.276987e-09 -8.119205e-10
-4.326046e-09 -3.080278e-09 7.575431e-09
7.438657e-09 2.595169e-09 -6.524931e-09
7.370283e-09 3.127500e-09 -6.058920e-09
1.235550e-08 6.337640e-09 -1.131144e-08
2.446848e-09 1.305642e-09 6.789544e-10
-4.018939e-09 2.431351e-10 -6.919772e-10
7.933645e-09 2.991984e-09 -5.554379e-09
4.545026e-10 3.951041e-10 7.391964e-09
-1.685190e-10 3.088180e-10 -1.416294e-09
-2.932427e-09 -9.208449e-10 -2.306031e-09
8.061065e-09 2.979180e-09 -6.837393e-09
-4.626222e-09 1.761542e-09 -3.049038e-09
-5.910589e-09 1.365495e-09 1.550196e-09
-7.979211e-11 1.281679e-09 3.853888e-09
1.358052e-09 -1.019174e-09 5.174903e-09
1.028751e-08 4.781202e-09 -7.740544e-09
-4.516876e-09 -3.727953e-09 -2.353486e-09
-4.033423e-09 2.634619e-09 1.207108e-09
-3.314375e-09 -2.860320e-09 4.541493e-09
-6.070600e-09 2.574327e-09 1.646735e-09
1.129223e-08 4.983013e-09 -6.591842e-09
7.781504e-11 1.150268e-09 6.426992e-09
3.867422e-10 2.912137e-10 -2.286591e-09
4.071336e-10 1.564100e-09 4.072406e-09
-4.780768e-09 -1.801665e-09 5.010022e-09
-1.663776e-09 -2.480714e-09 4.675299e-09
-4.217262e-09 3.116012e-09 1.517000e-09
-2.140054e-09 -2.522465e-09 -3.685843e-09
1.318232e-08 6.379710e-09 -1.157720e-08
[...]
POINT_DATA 1605
VECTORS vector_force float
2.861870e+02 -1.645884e+02 3.783789e+02 
-8.052793e+02 -9.990682e+02 2.426672e+02 
-3.743301e+02 3.955421e+02 -3.371553e+01 
9.908069e+02 3.865009e+01 -6.462791e+01 
1.632490e+02 5.533134e+02 8.308469e+01 
-1.165153e+02 2.206949e+01 2.395117e+02 
-3.350500e+02 5.638455e+02 1.262578e+03 
2.559164e+02 1.385357e+03 -4.823304e+02 
4.153860e+02 9.523718e+01 -7.269606e+01 
1.000739e+02 4.508041e+02 -7.261610e+02 
-5.376669e+02 8.014700e+01 3.461360e+02 
4.513967e+02 9.494894e+02 1.273685e+02 
-2.633410e+02 5.244714e+02 -2.015953e+02 
-3.790058e+02 6.202237e+02 -3.398903e+02 
6.102462e+02 1.205814e+03 1.174398e+02 
5.244255e+02 4.107664e+02 -1.128008e+03 
1.042956e+03 2.465426e+02 -1.071968e+03 
-4.756052e+02 -3.291233e+02 3.826934e+02 
-3.626642e+02 -2.977087e+02 6.538264e+01 
-1.764076e+02 -3.651749e+02 -1.333591e+02 
3.733158e+02 8.134753e+02 2.920204e+02 
7.752765e+02 2.333862e+02 -3.532680e+02 
-2.610408e+01 6.151028e+02 6.631035e+00 
2.238541e+02 -1.034902e+03 1.599697e+03 
3.123242e+02 -4.383757e+02 1.174946e+02 
1.388578e+03 2.689520e+02 2.483624e+02 
1.874305e+02 -8.570131e+02 8.493781e+01 
-3.990767e+02 4.898399e+01 -7.427430e+02 
-1.626735e+01 -2.960631e+02 2.591973e+02 
1.499734e+02 4.639106e+02 -3.829621e+02 
8.171852e+02 3.922773e+02 -7.910733e+02 
-3.806619e+02 3.099413e+02 1.581421e+02 
1.061533e+03 2.341518e+02 -1.371502e+03 
-1.818847e+02 -2.430327e+02 -2.100601e+02 
2.809247e+01 -1.410380e+02 5.228886e+01 
-4.841819e+02 4.673892e+02 3.208125e+02 
1.245655e+02 5.917110e+02 5.228013e+02 
-7.028148e+00 3.236905e+02 4.139621e+01 
-7.137311e+01 -7.193979e+01 3.145907e+02 
-1.955409e+02 -4.712523e+02 2.709453e+02 
-3.043903e+02 1.386516e+02 7.700130e+01 
-8.617261e+01 1.142400e+02 8.084198e+02 
1.125705e+03 -1.595282e+02 3.077184e+02 
9.933100e+02 -4.575124e+02 1.038721e+03 
-5.929470e+02 -8.454300e+01 4.512413e+02 
6.292705e+02 1.652825e+02 -5.331854e+02 
-1.228932e+03 -3.838035e+01 8.599271e+02 
1.530714e+01 1.954612e+02 -2.914578e+02 
-9.017171e+02 1.074651e+03 2.500602e+02 
-2.830301e+02 5.149515e+02 5.269081e+02 
5.593399e+02 -3.773168e+02 6.894511e+02 
4.425327e+02 -2.538450e+02 4.264850e+01 
4.453796e+02 -6.542651e+01 5.183692e+02 
-5.958301e+02 -4.251468e+02 -4.348393e+02 
-3.959831e+02 5.572166e+02 -2.269208e+02 
5.812990e+02 1.253410e+03 3.663341e+02 
4.273280e+00 1.099411e+01 -7.515605e+02 
1.198122e+03 1.535302e+03 -1.103681e+03 
-1.169931e+02 3.212980e+02 -4.203136e+02 
7.279676e+02 -4.763343e+02 4.336801e+02 
-1.486951e+02 -9.732168e+02 2.588563e+02 
3.254147e+02 -3.355699e+02 8.913665e+00 
1.059336e+02 -9.443426e+01 8.435066e+02 
-2.096122e+02 -1.279709e+03 -4.708073e+02 
2.835589e+02 -3.745099e+02 -3.624403e+01 
6.808201e+02 2.024551e+02 6.760775e+02 
-1.254951e+03 2.421091e+02 1.427414e+02 
-9.143739e+02 4.690022e+02 -3.021130e+02 
9.825859e+02 4.623730e+02 -5.080989e+01 
-1.614326e+03 1.436543e+02 -5.096763e+02 
-6.738605e+02 -3.955566e+02 9.679295e+01 
-2.816685e+02 8.689192e+02 -3.401558e+02 
9.362717e+02 -1.292816e+03 8.747784e+02 
-5.314248e+02 -4.659264e+02 8.233164e+02 
1.925112e+01 5.938154e+02 1.148240e+02 
-2.131529e+02 8.422381e+02 -4.204604e+02 
-9.923795e+01 1.147757e+01 -2.084017e+02 
-1.084182e+02 3.086108e+02 -2.173502e+02 
1.231398e+02 -3.439073e+02 -6.616834e+02 
1.685740e+02 1.526404e+02 2.160877e+02 
-2.399690e+01 -5.634895e+02 -9.275181e+01 
1.028078e+03 -3.559945e+02 3.608417e+02 
-2.539806e+02 -6.529208e+02 8.243772e+01 
-8.612834e+02 -3.935839e+00 9.033881e+02 
-2.407520e+02 -6.953286e+02 -1.128856e+02 
-4.556048e+02 7.836693e+02 2.701612e+02 
-7.939940e+02 -2.239260e+02 -2.573400e+02 
-7.209332e+01 -1.893505e+02 -1.236546e+03 
1.611310e+03 -8.977062e+02 3.068874e+02 
-3.324904e+02 -1.935792e+00 1.340814e+01 
-3.322827e+02 -4.091422e+02 1.517029e+02 
-2.068172e+01 -2.269325e+02 -1.582768e+03 
-7.199209e+01 -5.640335e+02 -2.007914e+02 
5.242981e+02 -1.663739e+02 -5.266869e+01 
-1.312112e+03 1.551135e+02 1.909328e+02 
7.920271e+02 1.470844e+02 -7.734339e+02 
-9.410684e+01 1.451372e+01 2.982836e+02 
2.088447e+02 -4.190857e+02 -7.407083e+02 
1.620378e+02 4.977851e+02 -5.103640e+02 
1.007942e+03 6.422904e+02 -7.289169e+02 
-3.923494e+02 2.616758e+02 -6.629428e+02 
-6.453117e+02 5.119673e+02 -7.372239e+02 
-3.842957e+02 -1.636292e+01 1.822087e+01 
-2.962830e+02 -1.985617e+01 -3.971633e+02 
-1.988597e+02 -1.084024e+03 -7.565916e+02 
-1.998055e+02 9.608627e+02 -1.962511e+02 
-5.876635e+02 -3.238527e+02 -5.711772e+01 
-4.519382e+02 4.381308e+02 1.146683e+02 
-5.220252e+02 -5.245594e+02 -1.031492e+02 
-1.428253e+02 9.133304e+02 -9.610217e+02 
1.464297e+02 -2.553241e+02 1.133586e+02 
-3.113820e+02 4.293029e+01 3.820711e+02 
-2.395972e+02 4.815379e+02 -1.761542e+02 
4.160828e+02 1.337821e+02 -1.098016e+02 
6.706263e+02 -1.463100e+02 4.893228e+02 
-9.367695e+02 5.598872e+02 -7.569245e+02 
2.067369e+02 -2.908399e+01 1.359342e+01 
2.271757e+02 5.736749e+02 -1.268678e+02 
1.017184e+02 -5.989793e+02 -2.742247e+02 
1.001846e+03 2.410842e+02 1.191639e+03 
-8.520206e+01 -1.826165e+01 -2.743452e+02 
4.679667e+02 6.417187e+02 6.108792e+02 
-1.859380e+02 -5.125924e+02 3.970938e+02 
6.767612e+02 -5.159035e+01 1.151866e+03 
-3.633211e+02 -4.703564e+02 4.274944e+02 
2.804345e+02 -5.103687e+01 -2.279029e+02 
4.382023e+02 -2.752167e+02 2.630313e+01 
-4.465157e+02 -4.170391e+02 -4.306980e+02 
1.775481e+02 2.198276e+02 -5.182776e+02 
2.367732e+00 -1.455055e+03 -2.750594e+02 
-3.383707e+02 7.710578e+02 5.051052e+02 
-3.332321e+02 4.049142e+02 8.076261e+02 
4.248739e+02 -4.405220e+02 1.068764e+02 
-1.786463e+02 -5.305109e+01 -2.598034e+02 
6.950753e+02 2.921907e+02 1.163107e+03 
-4.718924e+02 -5.445324e+01 -5.532108e+02 
-1.805501e+02 -8.349746e+02 -3.676243e+02 
5.271347e+02 5.337248e+02 5.418527e+02 
-8.260609e+02 5.444224e+01 3.212235e+02 
3.222450e+02 -1.812571e+02 2.882845e+02 
2.919757e+02 2.333035e+02 2.693251e+02 
8.097689e+02 9.527593e+01 -6.952154e+01 
-4.828331e+02 -3.430706e+02 -5.394279e+01 
-4.785828e+02 4.925826e+02 -4.273986e+02 
-2.541660e+02 -1.225567e+02 -3.001632e+02 
8.601736e+02 -4.011157e+02 8.544670e+02 
1.210027e+02 -6.396456e+02 -4.530010e+02 
-4.772357e+02 -6.021423e+02 6.526045e+02 
-2.239451e+02 4.792721e+02 9.989036e+02 
-2.864334e+02 1.525842e+02 3.183259e+02 
-1.620226e+02 -5.609675e+02 1.325081e+02 
2.135070e+02 1.614987e+02 1.884380e+02 
-5.351246e+00 2.596946e+02 -4.266317e+02 
-6.866435e+02 1.366858e+02 8.354658e+01 
5.648407e+02 -2.553410e+02 9.926328e+01 
-5.186970e+02 -6.963083e+01 -4.001570e+02 
2.314698e+02 1.164079e+02 5.794541e+02 
-5.309843e+02 -2.829042e+02 2.802937e+02 
-1.131459e+02 5.954144e+02 -1.512422e+02 
-1.711952e+03 4.202087e+01 -3.591105e+02 
-3.099180e+02 6.080924e+02 -3.688187e+01 
1.943978e+02 -7.245795e+00 4.749217e+02 
1.728091e+02 4.858539e+02 1.827601e+02 
-3.276187e+02 -3.623705e+02 -4.015952e+02 
8.058144e+02 -3.821007e+02 7.303236e+01 
1.060988e+03 -1.976246e+02 -7.809839e+02 
-9.712408e+02 -1.254116e+02 -1.227231e+03 
-7.731737e+02 7.284582e+02 -2.453621e+02 
3.647179e+01 -2.029835e+02 2.306533e+02 
-2.624251e+02 3.948824e+02 -7.464864e+02 
1.623749e+02 -2.820832e+02 -3.787115e+02 
4.029199e+01 1.883315e+02 -8.645106e+02 
-5.790180e+02 -6.749684e+02 4.225046e+02 
-9.403773e+01 -1.162674e+03 3.291921e+02 
-4.766880e+02 -1.281855e+02 9.848444e+01 
-4.895565e+01 7.099850e+02 5.299420e+02 
-1.110813e+02 2.543261e+01 -9.970650e+02 
7.516572e+01 -5.208728e+02 7.936755e+02 
-8.035790e+02 4.527182e+01 -7.862609e+02 
8.186222e+01 4.726458e+02 1.070550e+00 
5.841986e+02 -3.244663e+02 9.497480e+02 
-4.100642e+02 6.858547e+02 3.118002e+02 
-7.275340e+02 -2.730526e+02 5.462528e+02 
5.435838e+02 3.850696e+02 -5.104472e+02 
8.381983e+01 3.787072e+02 8.170587e+02 
1.022389e+03 7.779667e+02 3.658567e+02 
3.765240e+02 2.512496e+02 -5.547442e+02 
7.026372e+02 4.104945e+02 2.209103e+02 
9.863569e+02 6.236400e+02 9.804554e+01 
3.159862e+02 8.253211e+02 -3.759857e+02 
1.105361e+03 1.529269e+02 3.267015e+02 
1.684020e+02 -2.506958e+02 -4.299540e+02 
1.352787e+03 4.153747e+02 -1.266484e+03 
7.462693e+02 2.144194e+02 2.165468e+01 
2.894877e+02 5.176863e+01 -2.308259e+02 
-2.951088e+02 -6.231945e+02 -1.208836e+02 
3.462596e+02 2.105207e+02 1.999316e+02 
2.587524e+01 2.606208e+02 -1.843725e+02 
6.177603e+02 2.077830e+02 3.354284e+02 
-1.083694e+02 2.747467e+02 4.515793e+02 
-5.509298e+02 7.483504e+02 8.012630e+01 
-8.121558e+02 -2.176913e+02 6.836894e+02 
2.255653e+02 -2.676645e+02 -8.715956e+02 
-4.777936e+02 -1.218447e+03 -3.744416e+02 
4.289763e+02 4.781131e+01 -8.154767e+02 
1.173369e+02 9.628664e+02 2.610527e+01 
-7.989829e+02 -1.782566e+03 -1.581248e+02 
3.379602e+02 -1.087591e+03 -7.409087e+02 
-3.013459e+02 3.852838e+02 2.585411e+02 
-2.010744e+02 -6.169686e+02 2.158672e+02 
6.759919e+02 4.838151e+02 5.733335e+02 
5.753258e+02 -1.303971e+02 5.970994e+02 
7.961563e+02 4.131610e+02 3.879770e+02 
0.000000e+00 0.000000e+00 0.000000e+00 
0.000000e+00 0.000000e+00 0.000000e+00 
0.000000e+00 0.000000e+00 0.000000e+00 
0.000000e+00 0.000000e+00 0.000000e+00 
0.000000e+00 0.000000e+00 0.000000e+00 
0.000000e+00 0.000000e+00 0.000000e+00 
0.000000e+00 0.000000e+00 0.000000e+00 
0.000000e+00 0.000000e+00 0.000000e+00 
0.000000e+00 0.000000e+00 0.000000e+00 
0.000000e+00 0.000000e+00 0.000000e+00 
0.000000e+00 0.000000e+00 0.000000e+00 
0.000000e+00 0.000000e+00 0.000000e+00 
0.000000e+00 0.000000e+00 0.000000e+00 
0.000000e+00 0.000000e+00 0.000000e+00 
0.000000e+00 0.000000e+00 0.000000e+00 
0.000000e+00 0.000000e+00 0.000000e+00 
0.000000e+00 0.000000e+00 0.000000e+00 
0.000000e+00 0.000000e+00 0.000000e+00 
0.000000e+00 0.000000e+00 0.000000e+00 
0.000000e+00 0.000000e+00 0.000000e+00 
0.000000e+00 0.000000e+00 0.000000e+00 
0.000000e+00 0.000000e+00 0.000000e+00 
0.000000e+00 0.000000e+00 0.000000e+00 
0.000000e+00 0.000000e+00 0.000000e+00 
0.000000e+00 0.000000e+00 0.000000e+00 
0.000000e+00 0.000000e+00 0.000000e+00 
0.000000e+00 0.000000e+00 0.000000e+00 
0.000000e+00 0.000000e+00 0.000000e+00 
0.000000e+00 0.000000e+00 0.000000e+00 
0.000000e+00 0.000000e+00 0.000000e+00 
0.000000e+00 0.000000e+00 0.000000e+00 
0.000000e+00 0.000000e+00 0.000000e+00 
0.000000e+00 0.000000e+00 0.000000e+00 
0.000000e+00 0.000000e+00 0.000000e+00 
0.000000e+00 0.000000e+00 0.000000e+00 
0.000000e+00 0.000000e+00 0.000000e+00 
0.000000e+00 0.000000e+00 0.000000e+00 
0.000000e+00 0.000000e+00 0.000000e+00 
0.000000e+00 0.000000e+00 0.000000e+00 
0.000000e+00 0.000000e+00 0.000000e+00 
0.000000e+00 0.000000e+00 0.000000e+00 
0.000000e+00 0.000000e+00 0.000000e+00 
0.000000e+00 0.000000e+00 0.000000e+00 
0.000000e+00 0.000000e+00 0.000000e+00 
0.000000e+00 0.000000e+00 0.000000e+00 
0.000000e+00 0.000000e+00 0.000000e+00 
0.000000e+00 0.000000e+00 0.000000e+00 
0.000000e+00 0.000000e+00 0.000000e+00 
0.000000e+00 0.000000e+00 0.000000e+00 
0.000000e+00 0.000000e+00 0.000000e+00 
0.000000e+00 0.000000e+00 0.000000e+00 
0.000000e+00 0.000000e+00 0.000000e+00 
0.000000e+00 0.000000e+00 0.000000e+00 
0.000000e+00 0.000000e+00 0.000000e+00 
0.000000e+00 0.000000e+00 0.000000e+00 
0.000000e+00 0.000000e+00 0.000000e+00 
0.000000e+00 0.000000e+00 0.000000e+00 
0.000000e+00 0.000000e+00 0.000000e+00 
0.000000e+00 0.000000e+00 0.000000e+00 
0.000000e+00 0.000000e+00 0.000000e+00 
0.000000e+00 0.000000e+00 0.000000e+00 
0.000000e+00 0.000000e+00 0.000000e+00 
0.000000e+00 0.000000e+00 0.000000e+00 
0.000000e+00 0.000000e+00 0.000000e+00 
0.000000e+00 0.000000e+00 0.000000e+00 
0.000000e+00 0.000000e+00 0.000000e+00 
0.000000e+00 0.000000e+00 0.000000e+00 
0.000000e+00 0.000000e+00 0.000000e+00 
0.000000e+00 0.000000e+00 0.000000e+00 
0.000000e+00 0.000000e+00 0.000000e+00 
0.000000e+00 0.000000e+00 0.000000e+00 
0.000000e+00 0.000000e+00 0.000000e+00 
0.000000e+00 0.000000e+00 0.000000e+00 
0.000000e+00 0.000000e+00 0.000000e+00 
0.000000e+00 0.000000e+00 0.000000e+00 
0.000000e+00 0.000000e+00 0.000000e+00 
0.000000e+00 0.000000e+00 0.000000e+00 
0.000000e+00 0.000000e+00 0.000000e+00 
0.000000e+00 0.000000e+00 0.000000e+00 
0.000000e+00 0.000000e+00 0.000000e+00 
0.000000e+00 0.000000e+00 0.000000e+00 
0.000000e+00 0.000000e+00 0.000000e+00 
0.000000e+00 0.000000e+00 0.000000e+00 
0.000000e+00 0.000000e+00 0.000000e+00 
0.000000e+00 0.000000e+00 0.000000e+00 
0.000000e+00 0.000000e+00 0.000000e+00 
0.000000e+00 0.000000e+00 0.000000e+00 
0.000000e+00 0.000000e+00 0.000000e+00 
0.000000e+00 0.000000e+00 0.000000e+00 
0.000000e+00 0.000000e+00 0.000000e+00 
0.000000e+00 0.000000e+00 0.000000e+00 
0.000000e+00 0.000000e+00 0.000000e+00 
0.000000e+00 0.000000e+00 0.000000e+00 
0.000000e+00 0.000000e+00 0.000000e+00 
0.000000e+00 0.000000e+00 0.000000e+00 
0.000000e+00 0.000000e+00 0.000000e+00 
0.000000e+00 0.000000e+00 0.000000e+00 
0.000000e+00 0.000000e+00 0.000000e+00 
0.000000e+00 0.000000e+00 0.000000e+00 
0.000000e+00 0.000000e+00 0.000000e+00 
0.000000e+00 0.000000e+00 0.000000e+00 
0.000000e+00 0.000000e+00 0.000000e+00 
0.000000e+00 0.000000e+00 0.000000e+00 
0.000000e+00 0.000000e+00 0.000000e+00 
0.000000e+00 0.000000e+00 0.000000e+00 
0.000000e+00 0.000000e+00 0.000000e+00 
0.000000e+00 0.000000e+00 0.000000e+00 
0.000000e+00 0.000000e+00 0.000000e+00 
0.000000e+00 0.000000e+00 0.000000e+00 
0.000000e+00 0.000000e+00 0.000000e+00 
0.000000e+00 0.000000e+00 0.000000e+00 
0.000000e+00 0.000000e+00 0.000000e+00 
0.000000e+00 0.000000e+00 0.000000e+00 
0.000000e+00 0.000000e+00 0.000000e+00 
0.000000e+00 0.000000e+00 0.000000e+00 
0.000000e+00 0.000000e+00 0.000000e+00 
0.000000e+00 0.000000e+00 0.000000e+00 
0.000000e+00 0.000000e+00 0.000000e+00 
0.000000e+00 0.000000e+00 0.000000e+00 
0.000000e+00 0.000000e+00 0.000000e+00 
0.000000e+00 0.000000e+00 0.000000e+00 
0.000000e+00 0.000000e+00 0.000000e+00 
0.000000e+00 0.000000e+00 0.000000e+00 
0.000000e+00 0.000000e+00 0.000000e+00 
0.000000e+00 0.000000e+00 0.000000e+00 
0.000000e+00 0.000000e+00 0.000000e+00 
0.000000e+00 0.000000e+00 0.000000e+00 
0.000000e+00 0.000000e+00 0.000000e+00 
0.000000e+00 0.000000e+00 0.000000e+00 
0.000000e+00 0.000000e+00 0.000000e+00 
0.000000e+00 0.000000e+00 0.000000e+00 
0.000000e+00 0.000000e+00 0.000000e+00 
0.000000e+00 0.000000e+00 0.000000e+00 
0.000000e+00 0.000000e+00 0.000000e+00 
0.000000e+00 0.000000e+00 0.000000e+00 
0.000000e+00 0.000000e+00 0.000000e+00 
0.000000e+00 0.000000e+00 0.000000e+00 
0.000000e+00 0.000000e+00 0.000000e+00 
0.000000e+00 0.000000e+00 0.000000e+00 
0.000000e+00 0.000000e+00 0.000000e+00 
0.000000e+00 0.000000e+00 0.000000e+00 
0.000000e+00 0.000000e+00 0.000000e+00 
0.000000e+00 0.000000e+00 0.000000e+00 
0.000000e+00 0.000000e+00 0.000000e+00 
0.000000e+00 0.000000e+00 0.000000e+00 
0.000000e+00 0.000000e+00 0.000000e+00 
0.000000e+00 0.000000e+00 0.000000e+00 
0.000000e+00 0.000000e+00 0.000000e+00 
0.000000e+00 0.000000e+00 0.000000e+00 
0.000000e+00 0.000000e+00 0.000000e+00 
0.000000e+00 0.000000e+00 0.000000e+00 
0.000000e+00 0.000000e+00 0.000000e+00 
0.000000e+00 0.000000e+00 0.000000e+00 
0.000000e+00 0.000000e+00 0.000000e+00 
0.000000e+00 0.000000e+00 0.000000e+00 
0.000000e+00 0.000000e+00 0.000000e+00 
0.000000e+00 0.000000e+00 0.000000e+00 
0.000000e+00 0.000000e+00 0.000000e+00 
0.000000e+00 0.000000e+00 0.000000e+00 
0.000000e+00 0.000000e+00 0.000000e+00 
0.000000e+00 0.000000e+00 0.000000e+00 
0.000000e+00 0.000000e+00 0.000000e+00 
0.000000e+00 0.000000e+00 0.000000e+00 
0.000000e+00 0.000000e+00 0.000000e+00 
0.000000e+00 0.000000e+00 0.000000e+00 
0.000000e+00 0.000000e+00 0.000000e+00 
0.000000e+00 0.000000e+00 0.000000e+00 
0.000000e+00 0.000000e+00 0.000000e+00 
0.000000e+00 0.000000e+00 0.000000e+00 
0.000000e+00 0.000000e+00 0.000000e+00 
0.000000e+00 0.000000e+00 0.000000e+00 
0.000000e+00 0.000000e+00 0.000000e+00 
0.000000e+00 0.000000e+00 0.000000e+00 
0.000000e+00 0.000000e+00 0.000000e+00 
0.000000e+00 0.000000e+00 0.000000e+00 
0.000000e+00 0.000000e+00 0.000000e+00 
0.000000e+00 0.000000e+00 0.000000e+00 
0.000000e+00 0.000000e+00 0.000000e+00 
0.000000e+00 0.000000e+00 0.000000e+00 
0.000000e+00 0.000000e+00 0.000000e+00 
0.000000e+00 0.000000e+00 0.000000e+00 
0.000000e+00 0.000000e+00 0.000000e+00 
0.000000e+00 0.000000e+00 0.000000e+00 
0.000000e+00 0.000000e+00 0.000000e+00 
0.000000e+00 0.000000e+00 0.000000e+00 
0.000000e+00 0.000000e+00 0.000000e+00 
0.000000e+00 0.000000e+00 0.000000e+00 
0.000000e+00 0.000000e+00 0.000000e+00 
0.000000e+00 0.000000e+00 0.000000e+00 
0.000000e+00 0.000000e+00 0.000000e+00 
0.000000e+00 0.000000e+00 0.000000e+00 
0.000000e+00 0.000000e+00 0.000000e+00 
0.000000e+00 0.000000e+00 0.000000e+00 
0.000000e+00 0.000000e+00 0.000000e+00 
0.000000e+00 0.000000e+00 0.000000e+00 
0.000000e+00 0.000000e+00 0.000000e+00 
0.000000e+00 0.000000e+00 0.000000e+00 
0.000000e+00 0.000000e+00 0.000000e+00 
0.000000e+00 0.000000e+00 0.000000e+00 
0.000000e+00 0.000000e+00 0.000000e+00 
0.000000e+00 0.000000e+00 0.000000e+00 
0.000000e+00 0.000000e+00 0.000000e+00 
0.000000e+00 0.000000e+00 0.000000e+00 
0.000000e+00 0.000000e+00 0.000000e+00 
0.000000e+00 0.000000e+00 0.000000e+00 
0.000000e+00 0.000000e+00 0.000000e+00 
0.000000e+00 0.000000e+00 0.000000e+00 
0.000000e+00 0.000000e+00 0.000000e+00 
0.000000e+00 0.000000e+00 0.000000e+00 
0.000000e+00 0.000000e+00 0.000000e+00 
0.000000e+00 0.000000e+00 0.000000e+00 
0.000000e+00 0.000000e+00 0.000000e+00 
0.000000e+00 0.000000e+00 0.000000e+00 
0.000000e+00 0.000000e+00 0.000000e+00 
0.000000e+00 0.000000e+00 0.000000e+00 
0.000000e+00 0.000000e+00 0.000000e+00 
0.000000e+00 0.000000e+00 0.000000e+00 
0.000000e+00 0.000000e+00 0.000000e+00 
0.000000e+00 0.000000e+00 0.000000e+00 
0.000000e+00 0.000000e+00 0.000000e+00 
0.000000e+00 0.000000e+00 0.000000e+00 
0.000000e+00 0.000000e+00 0.000000e+00 
0.000000e+00 0.000000e+00 0.000000e+00 
0.000000e+00 0.000000e+00 0.000000e+00 
0.000000e+00 0.000000e+00 0.000000e+00 
0.000000e+00 0.000000e+00 0.000000e+00 
0.000000e+00 0.000000e+00 0.000000e+00 
0.000000e+00 0.000000e+00 0.000000e+00 
0.000000e+00 0.000000e+00 0.000000e+00 
0.000000e+00 0.000000e+00 0.000000e+00 
0.000000e+00 0.000000e+00 0.000000e+00 
0.000000e+00 0.000000e+00 0.000000e+00 
0.000000e+00 0.000000e+00 0.000000e+00 
0.000000e+00 0.000000e+00 0.000000e+00 
0.000000e+00 0.000000e+00 0.000000e+00 
0.000000e+00 0.000000e+00 0.000000e+00 
0.000000e+00 0.000000e+00 0.000000e+00 
0.000000e+00 0.000000e+00 0.000000e+00 
0.000000e+00 0.000000e+00 0.000000e+00 
0.000000e+00 0.000000e+00 0.000000e+00 
0.000000e+00 0.000000e+00 0.000000e+00 
0.000000e+00 0.000000e+00 0.000000e+00 
0.000000e+00 0.000000e+00 0.000000e+00 
0.000000e+00 0.000000e+00 0.000000e+00 
0.000000e+00 0.000000e+00 0.000000e+00 
0.000000e+00 0.000000e+00 0.000000e+00 
0.000000e+00 0.000000e+00 0.000000e+00 
0.000000e+00 0.000000e+00 0.000000e+00 
0.000000e+00 0.000000e+00 0.000000e+00 
0.000000e+00 0.000000e+00 0.000000e+00 
0.000000e+00 0.000000e+00 0.000000e+00 
0.000000e+00 0.000000e+00 0.000000e+00 
0.000000e+00 0.000000e+00 0.000000e+00 
0.000000e+00 0.000000e+00 0.000000e+00 
0.000000e+00 0.000000e+00 0.000000e+00 
0.000000e+00 0.000000e+00 0.000000e+00 
0.000000e+00 0.000000e+00 0.000000e+00 
0.000000e+00 0.000000e+00 0.000000e+00 
0.000000e+00 0.000000e+00 0.000000e+00 
0.000000e+00 0.000000e+00 0.000000e+00 
0.000000e+00 0.000000e+00 0.000000e+00 
0.000000e+00 0.000000e+00 0.000000e+00 
0.000000e+00 0.000000e+00 0.000000e+00 
0.000000e+00 0.000000e+00 0.000000e+00 
0.000000e+00 0.000000e+00 0.000000e+00 
0.000000e+00 0.000000e+00 0.000000e+00 
0.000000e+00 0.000000e+00 0.000000e+00 
0.000000e+00 0.000000e+00 0.000000e+00 
0.000000e+00 0.000000e+00 0.000000e+00 
0.000000e+00 0.000000e+00 0.000000e+00 
0.000000e+00 0.000000e+00 0.000000e+00 
0.000000e+00 0.000000e+00 0.000000e+00 
0.000000e+00 0.000000e+00 0.000000e+00 
0.000000e+00 0.000000e+00 0.000000e+00 
0.000000e+00 0.000000e+00 0.000000e+00 
0.000000e+00 0.000000e+00 0.000000e+00 
0.000000e+00 0.000000e+00 0.000000e+00 
0.000000e+00 0.000000e+00 0.000000e+00 