# vtk DataFile Version 3.1
*description-name of input file* step:1101 
ASCII
DATASET UNSTRUCTURED_GRID
POINTS 1605 FLOAT
-7.126792e-09 -5.930123e-09 -1.136384e-10
-7.592102e-09 -4.520940e-09 -5.529310e-10
-6.283987e-09 -4.944683e-09 -6.931367e-10
-7.789229e-09 -4.121371e-09 2.022006e-09
-5.411721e-09 -5.853914e-09 7.237160e-11
1.211012e-08 7.182441e-09 -1.075049e-08
1.365940e-08 7.276277e-09 -1.086708e-08
1.298156e-08 5.969677e-09 -1.201651e-08
-6.003393e-09 -6.168507e-09 1.060742e-09
-6.279866e-09 -2.944718e-09 9.480876e-10
-4.328723e-09 -4.686050e-09 -1.016394e-09
-6.207891e-09 -2.957244e-09 -4.406787e-10
-5.521279e-09 -5.461944e-09 2.487061e-09
-5.815015e-09 -3.802766e-09 1.928609e-09
-5.141127e-09 -3.818981e-09 -1.502452e-09
-7.416575e-09 -4.253268e-09 3.271153e-09
-3.351384e-09 -5.319779e-09 2.822824e-10
-6.514097e-09 -1.303767e-09 2.464275e-10
-5.369980e-09 -1.464442e-09 -1.004355e-09
-3.952853e-09 -4.125233e-09 -3.399481e-09
-5.085187e-09 -2.827208e-09 -2.907768e-09
-4.127679e-09 -2.312624e-09 -3.731579e-09
-6.300959e-09 -2.588786e-09 2.463274e-09
-5.912619e-09 2.507543e-10 -2.366331e-09
-6.330121e-09 3.400796e-10 -9.124043e-10
-3.585659e-09 -4.684786e-09 1.903032e-09
-7.283651e-09 -1.689846e-09 1.290360e-09
-5.807194e-09 -3.653394e-09 4.212790e-09
-4.138875e-09 -1.997934e-09 -3.888206e-10
-7.665368e-09 -2.226133e-09 3.294486e-09
-2.401357e-09 -4.677117e-09 -2.062418e-09
-2.758361e-09 -3.195269e-09 -3.631350e-09
-2.161751e-09 -4.071993e-09 -3.217561e-09
-3.474032e-09 -3.361187e-09 -6.502014e-10
-5.851969e-09 -2.579306e-09 4.274928e-09
-4.219821e-09 -9.077421e-10 -2.348479e-09
-6.304173e-09 -6.782274e-10 2.159244e-09
-4.719839e-09 -3.032479e-10 4.951158e-10
-3.073992e-09 -2.002077e-09 -2.001847e-09
-4.015773e-09 -4.093126e-09 3.798554e-09
-4.853420e-09 3.100607e-10 -6.958888e-10
-3.933861e-09 9.949492e-10 -5.086908e-09
-4.010577e-09 3.671898e-10 -2.978075e-09
-4.802198e-09 1.108146e-09 -3.642782e-09
-4.136761e-09 -2.583881e-09 2.118462e-09
-1.709397e-09 -3.133404e-09 -6.045292e-10
-4.255064e-09 2.465038e-09 -4.123874e-09
-3.047803e-09 -1.572259e-09 -3.338067e-09
-3.209905e-09 8.426183e-11 -2.853432e-09
-1.645837e-09 -1.776458e-09 -3.500836e-09
-3.422356e-09 3.694329e-10 -8.846947e-10
-2.981945e-09 -1.947757e-09 1.679783e-10
-3.419189e-09 2.752552e-10 -4.768486e-09
-1.869835e-09 -2.280769e-09 -1.811004e-09
-3.908699e-09 -3.001175e-10 8.237744e-09
-2.298436e-09 -1.547198e-09 7.592516e-09
-1.722907e-09 2.677245e-10 7.325358e-09
-1.528022e-09 3.984535e-10 -4.245013e-09
-5.761076e-09 -3.226266e-09 5.936357e-09
-4.056575e-09 2.279863e-09 -2.394631e-09
-3.654875e-09 -2.869694e-09 3.700699e-09
-4.430769e-09 -3.592582e-10 2.572480e-09
-3.861215e-09 -1.446439e-09 1.198865e-09
-5.285576e-09 2.294595e-09 -2.052244e-10
-4.729997e-09 7.691334e-10 1.221067e-09
-6.473298e-09 1.964462e-09 1.757451e-09
-4.609990e-09 -4.477736e-09 5.730245e-09
-4.711386e-09 -3.657441e-09 6.970156e-09
-6.083913e-09 -1.690435e-09 6.615147e-09
-2.128430e-09 1.822068e-09 2.036733e-09
-2.320782e-12 2.398869e-09 3.645529e-09
-1.092779e-09 1.713990e-09 7.945911e-10
-4.652951e-09 6.884522e-10 -1.111629e-09
-3.126512e-09 -4.391224e-09 5.418892e-09
1.011628e-09 2.530296e-10 3.697830e-09
8.819238e-10 1.189655e-09 4.307277e-09
2.092424e-11 7.591592e-10 5.590879e-09
-5.418850e-09 3.398044e-09 1.029945e-09
-4.711640e-09 -1.680656e-09 5.461619e-09
-1.061923e-09 -5.809681e-12 -1.354532e-09
-4.470637e-09 -2.360174e-09 4.605290e-09
-3.458341e-09 1.337492e-10 6.035796e-10
-2.221364e-09 -4.389838e-10 -1.288901e-10
-5.868189e-09 2.607328e-09 3.903095e-09
-2.386032e-09 -5.121009e-09 3.735678e-09
-2.833346e-09 2.754783e-09 -3.423426e-09
-2.231589e-09 -3.812642e-09 2.646393e-09
-5.661907e-09 -5.292389e-10 5.477255e-09
-2.444220e-09 1.521610e-09 -2.224473e-09
-4.192447e-09 1.627105e-11 4.847073e-09
-2.892404e-09 -2.836316e-09 4.880501e-09
-5.817318e-09 -6.905296e-10 4.264650e-09
-3.262122e-09 -1.022311e-09 4.235675e-09
-6.367352e-10 -1.485605e-09 1.201558e-10
-4.438528e-09 3.468911e-09 2.460051e-09
-3.143286e-09 2.813623e-09 -8.123635e-10
-2.483013e-10 -1.577607e-09 -3.357668e-09
3.051706e-10 -2.854006e-09 -2.770231e-09
-3.969304e-09 -2.381965e-09 7.748387e-09
-5.592595e-09 -1.386515e-09 7.632342e-09
-5.509631e-09 1.733195e-10 7.604409e-09
8.952552e-10 2.173991e-09 3.090532e-09
-3.357344e-09 1.283848e-09 9.830356e-10
-3.521627e-09 2.847018e-09 5.809210e-10
-6.385052e-09 1.339863e-09 4.954458e-09
-4.497316e-09 9.845138e-11 3.704908e-09
-3.591228e-09 -2.568105e-09 6.230987e-09
2.969662e-11 -2.709611e-11 -3.310180e-09
-1.338401e-09 -2.763833e-09 3.579870e-09
-5.008983e-09 1.194310e-09 6.753655e-09
-3.526948e-09 7.250060e-10 3.375443e-09
-4.174495e-09 2.212199e-09 5.476548e-09
-4.319956e-09 1.821607e-09 3.116187e-09
-3.173836e-10 -3.868565e-09 2.680322e-09
8.412285e-10 -3.655408e-09 4.184800e-09
-4.058859e-09 2.342828e-09 1.886338e-09
3.706160e-10 -1.930497e-09 -5.318135e-10
-3.977295e-09 2.870131e-09 4.182573e-09
1.266926e-09 -1.075069e-09 -2.975777e-09
-7.390662e-10 -3.891328e-09 6.170711e-09
-8.683117e-10 -6.401032e-10 1.261489e-09
-2.264342e-09 -3.264192e-09 6.574480e-09
-1.894452e-09 -2.147897e-09 5.439305e-09
-1.592877e-09 -2.508396e-10 2.888654e-09
-1.441604e-09 -1.749380e-09 4.298076e-09
-2.577641e-09 1.359479e-09 3.697941e-09
1.624806e-09 -8.226458e-10 -1.278115e-09
5.462372e-10 8.003924e-10 -1.269907e-09
1.619061e-09 -6.202320e-10 5.975261e-09
-3.163710e-09 1.211450e-09 6.081749e-09
8.704217e-10 6.247578e-10 -3.148749e-09
9.855920e-10 -4.468200e-09 2.871639e-09
-7.652409e-10 -6.584705e-10 4.000511e-09
8.604702e-10 -1.036909e-09 -1.013023e-10
6.127777e-10 -3.687410e-09 5.484457e-09
-3.053777e-09 9.339294e-10 7.420924e-09
-2.491779e-09 2.201109e-09 5.674328e-09
-1.190358e-09 -1.857440e-09 6.621596e-09
2.224940e-09 -4.638697e-09 3.533250e-09
2.000433e-09 -3.760576e-09 2.408214e-09
-2.008967e-10 -1.483706e-09 2.723070e-09
-1.473110e-10 -2.773182e-09 6.988042e-09
1.312084e-09 -1.614319e-09 1.661150e-09
1.865953e-09 -2.530504e-10 -2.130040e-09
-9.071106e-10 1.662019e-09 3.511236e-09
-7.788348e-10 -1.512907e-09 7.927018e-09
1.656266e-09 5.090445e-10 2.317311e-12
2.339551e-09 -3.295714e-09 4.680821e-09
2.950264e-09 -4.039474e-09 3.495786e-09
1.932698e-09 1.436354e-09 -1.191626e-09
4.816005e-10 -2.374193e-09 6.175418e-09
-1.631511e-09 6.945174e-10 5.143485e-09
2.817832e-09 -2.069540e-10 7.896312e-10
2.613390e-09 2.740507e-10 -3.886033e-09
1.666889e-09 -2.631807e-09 4.864814e-09
3.450380e-09 -2.714807e-09 2.438098e-09
3.377027e-09 7.161356e-10 -2.156177e-09
2.518776e-09 2.292893e-09 -2.564902e-09
2.599867e-09 2.081398e-09 -4.023168e-09
3.609835e-09 9.193154e-10 -3.883151e-09
4.061317e-09 1.429929e-09 -5.213682e-09
1.345756e-09 -1.402692e-09 4.236811e-09
5.755754e-10 -8.796702e-10 7.178490e-09
2.586168e-09 -7.838824e-10 2.029389e-09
1.224775e-09 1.496321e-09 6.065021e-10
2.150131e-09 1.592583e-09 -2.496473e-10
4.511182e-09 1.747142e-09 -3.549452e-09
3.160355e-10 1.283039e-09 7.606624e-09
1.434013e-09 1.120151e-09 1.969061e-09
2.737976e-09 -2.185033e-09 3.472388e-09
2.132690e-09 -2.244981e-10 3.288305e-09
3.665788e-09 -1.802352e-10 2.030465e-09
4.307933e-09 2.835323e-09 -3.517734e-09
3.204987e-09 7.831698e-10 -7.875454e-10
3.245179e-09 1.636895e-09 -1.719901e-09
4.814192e-09 2.499415e-09 -5.037779e-09
3.392084e-09 9.431752e-10 8.051138e-10
5.109094e-09 2.005497e-09 -6.051730e-09
5.417293e-09 1.571261e-09 -4.667694e-09
3.828962e-09 -1.251388e-11 -1.944917e-10
3.224575e-09 8.607928e-10 2.613504e-09
6.384734e-09 1.418966e-09 -5.915757e-09
5.684724e-09 2.764854e-09 -3.983787e-09
7.067818e-09 3.063399e-09 -6.740897e-09
6.624033e-09 2.094685e-09 -4.992562e-09
7.339613e-09 2.195483e-09 -6.680177e-09
6.339292e-09 3.548467e-09 -4.613079e-09
7.539094e-09 3.407048e-09 -5.701694e-09
8.644876e-09 2.794545e-09 -5.841317e-09
8.469218e-09 2.926151e-09 -7.085966e-09
8.424718e-09 4.112858e-09 -6.922139e-09
9.505451e-09 3.104105e-09 -6.875374e-09
1.037518e-08 4.374450e-09 -7.828383e-09
1.019433e-08 4.870471e-09 -7.755641e-09
9.523126e-09 3.844676e-09 -6.086310e-09
1.112356e-08 4.179289e-09 -7.012699e-09
1.002737e-08 4.756412e-09 -6.396502e-09
1.127443e-08 4.980613e-09 -8.601266e-09
1.129390e-08 6.401362e-09 -7.602960e-09
1.106493e-08 5.365119e-09 -6.607552e-09
1.266781e-08 4.899663e-09 -8.353778e-09
1.132769e-08 6.695632e-09 -1.004069e-08
1.153564e-08 5.902047e-09 -1.044291e-08
1.121036e-08 6.131913e-09 -8.949145e-09
1.210456e-08 5.110176e-09 -9.197951e-09
1.166345e-08 5.929519e-09 -7.151349e-09
1.287366e-08 5.678228e-09 -7.967558e-09
1.345442e-08 5.155851e-09 -9.317017e-09
1.388956e-08 5.514241e-09 -1.059518e-08
1.201054e-08 6.936618e-09 -8.685787e-09
1.437918e-08 6.719188e-09 -1.012460e-08
1.372742e-08 6.255214e-09 -8.745725e-09
1.350034e-08 7.664918e-09 -9.090498e-09
2.041414e-09 1.514469e-09 -7.206366e-10
-4.340345e-09 -3.019703e-09 7.359272e-09
7.203715e-09 2.629441e-09 -6.710537e-09
7.303456e-09 3.235224e-09 -6.221295e-09
1.254584e-08 6.576059e-09 -1.138350e-08
2.308430e-09 1.219748e-09 7.058079e-10
-4.137888e-09 3.397468e-10 -7.902918e-10
8.091985e-09 3.100796e-09 -5.771506e-09
4.458055e-10 2.016845e-10 7.392557e-09
-2.578428e-10 3.972913e-10 -1.312219e-09
-3.141949e-09 -9.589074e-10 -2.427640e-09
7.768518e-09 2.994775e-09 -6.913431e-09
-4.429387e-09 1.694005e-09 -3.018707e-09
-5.601648e-09 1.366798e-09 1.489259e-09
-1.259337e-11 1.425837e-09 3.909257e-09
1.482409e-09 -1.011462e-09 5.106036e-09
1.028476e-08 4.622461e-09 -7.792012e-09
-4.546990e-09 -3.972107e-09 -2.450966e-09
-3.790243e-09 2.594923e-09 1.233629e-09
-3.273640e-09 -2.853005e-09 4.290600e-09
-5.946074e-09 2.681253e-09 1.393698e-09
1.109425e-08 4.772204e-09 -6.810126e-09
1.684799e-10 1.021099e-09 6.598752e-09
2.879669e-10 3.866481e-10 -2.290043e-09
4.398015e-10 1.794262e-09 3.976403e-09
-4.591138e-09 -2.020415e-09 5.033455e-09
-1.616427e-09 -2.455865e-09 4.509588e-09
-3.980077e-09 3.157964e-09 1.520486e-09
-2.202099e-09 -2.485864e-09 -3.566093e-09
1.332048e-08 6.622977e-09 -1.144179e-08
[...]
POINT_DATA 1605
VECTORS vector_force float
7.250469e+01 3.051777e+02 2.279702e+02 
1.416398e+00 -1.857487e+02 1.080640e+03 
-5.000569e+00 4.721134e+02 -1.271256e+02 
-6.566375e+01 1.218943e+02 7.009149e+02 
-1.013801e+02 2.446325e+01 -1.364315e+02 
-4.881688e+02 -1.205427e+03 3.190743e+02 
-2.017002e+03 -1.146757e+03 -7.261108e+02 
-3.559551e+01 -8.273488e+02 9.742574e+01 
-3.972522e+02 -9.149095e+02 1.027585e+02 
1.491660e+02 -4.718409e+02 7.727106e+02 
4.589367e+02 4.228856e+02 -3.143167e+02 
1.347751e+02 4.918499e+02 2.333924e+02 
-5.088423e+00 9.285281e+01 -1.551042e+02 
-2.684056e+00 4.727865e+02 3.483776e+02 
4.295612e+02 5.256869e+02 5.568933e+02 
2.060156e+02 7.939305e+02 2.229830e+02 
-7.468244e+02 1.443627e+03 1.302494e+01 
-1.266162e+02 3.185262e+02 3.555270e+02 
-2.444980e+01 1.791448e+02 6.120607e+02 
-4.668074e+02 -3.968754e+02 -3.766307e+02 
5.237309e+02 1.617811e+02 7.134246e+02 
-2.447645e+02 -7.865624e+02 2.423526e+02 
-1.970993e+02 1.238556e+02 3.431677e+02 
-3.552961e+02 -1.789365e+03 5.440383e+02 
-9.882414e+02 1.575167e+02 -7.418483e+02 
-2.682466e+02 -2.702867e+02 -4.421283e+02 
6.980968e+02 2.595398e+02 3.606857e+02 
1.015021e+03 -1.218026e+02 5.747873e+02 
-9.987304e+01 7.031475e+01 -1.158047e+02 
1.104602e+03 1.323714e+03 6.824817e+02 
-1.179088e+02 5.220555e+01 8.977704e+02 
-5.791595e+02 -4.905794e+02 -8.233235e+01 
9.746198e+01 -1.753785e+03 4.129134e+02 
6.214739e+01 2.719357e+02 -2.263909e+02 
3.031134e+02 1.021408e+02 5.291652e+01 
1.735593e+02 9.739807e+02 1.149341e+02 
4.549796e+01 -1.824352e-01 -1.524604e+02 
1.320449e+02 -8.034850e+01 -2.254876e+02 
3.174749e+00 5.427797e+02 -5.792508e+02 
1.176770e+03 1.847258e+02 -4.587542e+02 
-4.898441e+02 -1.270051e+02 -7.548640e+02 
1.644681e+02 -4.182463e+02 -3.547577e+02 
-2.191268e+02 7.069136e+02 6.215202e+02 
-2.567659e+02 1.812442e+02 -8.868039e+02 
-1.755043e+02 -2.918582e+02 -3.208627e+00 
5.712461e+02 2.013839e+01 6.182700e+02 
-1.617074e+02 -9.150358e+02 -1.075972e+03 
-1.834664e+02 -6.687967e+01 5.969023e+02 
7.906079e+02 1.736664e+02 1.734253e+02 
7.085783e+01 -5.197683e+02 2.962099e+02 
1.418067e+02 -3.680215e+02 4.112682e+02 
2.005748e+02 4.845335e+02 2.336916e+02 
2.231490e+02 5.350149e+02 -3.905156e+02 
-8.981760e+01 -6.313767e+01 -1.532157e+02 
-3.069185e+02 -1.724482e+01 -7.201659e+02 
-4.859222e+00 1.434217e+02 -7.687517e+02 
7.835446e+02 6.825281e+02 2.224801e+02 
4.780155e+01 6.823919e+02 -9.285183e+02 
7.836678e+02 5.135239e+02 9.933709e+02 
-3.711377e+02 1.385704e+03 -8.417635e+02 
-2.203797e+01 4.646743e+02 -2.430990e+01 
9.821037e+01 5.684089e+00 -4.892683e+01 
-5.208736e+01 -4.427106e+02 -1.332962e+01 
-2.537996e+02 4.499877e+02 -6.544547e+02 
1.442004e+02 3.900900e+02 -1.610804e+02 
-7.215052e+02 -3.193144e+02 -1.037985e+03 
-2.507558e+02 4.085098e+02 -3.053895e+02 
-4.643920e+02 -2.987603e+02 1.884587e+02 
8.053685e+02 -1.278626e+03 8.146264e+02 
-7.486442e+02 -9.984033e+02 1.727925e+02 
-1.694836e+02 -8.046227e+02 -3.009335e+02 
-1.482786e+02 -3.355887e+02 -2.271115e+02 
-1.850734e+02 3.510648e+02 -6.423476e+02 
7.963824e+02 -2.451979e+02 -5.432482e+01 
-7.465306e+02 -5.391975e+02 -3.929730e+02 
-5.406035e+02 -1.864756e+02 4.694023e+02 
-7.935701e+02 2.155360e+02 -4.774301e+02 
2.378794e+02 -2.183951e+02 -3.696965e+02 
3.170548e+02 -7.582581e+02 2.480829e+02 
1.321220e+01 -3.006092e+02 -5.664876e+02 
1.086235e+03 -4.611890e+02 3.364873e+02 
-1.808982e+02 -1.339186e+03 3.450047e+02 
-8.590570e+01 1.907970e+02 1.129252e+02 
-8.215182e+02 -3.534309e+02 3.075047e+02 
-4.519528e+02 -1.903478e+02 -6.651600e+02 
2.289836e+02 9.346319e+02 4.503633e+02 
-1.805790e+02 2.929424e+01 -6.755017e+00 
1.773471e+02 -5.078036e+02 -3.891037e+01 
-3.225830e+02 5.227589e+02 -3.829224e+02 
-7.519545e+00 -6.504769e+02 -3.755453e+01 
9.053006e+01 -1.229099e+02 -1.069870e+02 
-2.965487e+02 -9.133900e+02 -6.659773e+02 
2.206471e+02 -5.889739e+02 3.982481e+02 
-2.710825e+01 -3.660356e+01 -1.412208e+02 
2.695679e+01 -2.363178e+02 -4.209613e+02 
1.369333e+01 -3.363535e+02 1.829015e+02 
2.466202e+02 -2.331916e+02 5.707358e+02 
-3.862620e+02 3.178257e+02 6.034261e+02 
9.135073e+02 -6.072689e+02 2.915582e+02 
7.906359e+02 -3.929946e+02 1.311061e+03 
-4.775346e+01 -6.695589e+02 -2.621336e+01 
2.133543e+02 -7.705908e+02 8.042411e+02 
5.361705e+02 -7.009522e+02 -2.931873e+02 
7.927667e+02 -1.498216e+02 -8.159806e+01 
-8.334055e+02 -8.808045e+02 1.141666e+02 
-5.860325e+02 -3.445015e+02 -1.921540e+01 
5.650775e+02 -6.378068e+02 -5.666921e+02 
8.974742e+02 -4.986886e+02 3.367726e+02 
-4.768318e+02 2.628117e+02 5.806840e+02 
-9.348210e+02 -2.250193e+02 2.614279e+02 
-4.843898e+02 -7.984533e+02 1.814976e+02 
-7.726876e+02 -3.237766e+02 -3.267648e+02 
1.824256e+02 -9.661886e+01 -5.275056e+02 
2.692591e+00 -9.013644e+01 4.070755e+02 
-1.206733e+02 5.429486e+00 -1.608134e+01 
-8.159851e+02 -2.835801e+02 -3.674874e+02 
-3.580891e+02 1.564312e+02 -1.703189e+02 
-4.827184e+01 -4.758846e+02 -4.153464e+02 
5.265304e+02 -7.108302e+02 6.984993e+02 
5.173466e+02 -6.591145e+02 -2.072079e+02 
8.119827e+01 1.712136e+02 -1.164363e+03 
6.329618e+02 -1.499436e+02 -2.316063e+02 
-1.107361e+02 -3.138158e+02 -4.437836e+01 
3.325772e+02 -4.745844e+02 -1.133179e+02 
-6.523132e+02 1.555493e+02 2.614333e+02 
5.256786e+01 -3.372632e+02 -1.802806e+02 
1.049838e+03 -3.396275e+01 -9.615765e+01 
6.966645e+02 -2.097357e+02 -8.902324e+02 
7.259405e+02 -4.585981e+02 -9.643586e+02 
-5.793863e+02 3.013327e+02 -1.009473e+02 
7.327558e+02 -3.252513e+02 1.374091e+01 
3.944930e+02 5.530810e+01 -7.607074e+02 
-2.786382e+02 -1.465519e+02 -4.935347e+00 
-5.843824e+01 5.643547e+02 8.340207e+01 
8.074754e+02 5.509197e+02 -2.283117e+02 
-1.824354e+02 -2.991390e+02 4.316903e+02 
-8.463588e+02 -3.013797e+02 1.672692e+02 
1.638893e+02 5.566264e+02 3.752996e+02 
-6.952455e+02 1.399306e+02 -1.434364e+03 
-4.901797e+02 8.919813e+02 -3.499535e+02 
-2.472254e+02 -1.050131e+02 -5.637143e+02 
3.350302e+02 -1.829710e+02 3.611026e+02 
1.012108e+02 3.280030e+02 -5.576033e+02 
5.849414e+02 -4.055764e+02 3.469494e+02 
3.049734e+02 -5.534119e+02 7.198632e+01 
7.618050e+02 7.706718e+02 1.654948e+02 
1.030376e+02 3.868847e+01 -9.080376e+01 
-1.306122e+03 -5.849182e+02 -5.109763e+02 
-5.471491e+02 2.735785e+02 3.166047e+02 
1.029455e+03 1.945976e+02 2.662203e+02 
1.139537e+02 -1.139317e+02 -7.216563e+02 
-2.231479e+02 2.230890e+02 -4.751039e+02 
2.903818e+02 -2.399392e+02 -4.580353e+02 
5.631859e+02 -6.189282e+02 1.304320e+02 
-8.909041e+02 -1.677483e+02 2.309735e+02 
-1.159151e+03 1.043846e+02 4.393495e+01 
5.025831e+02 -4.210205e+02 5.138816e+02 
-5.438872e+02 -3.704475e+02 7.589698e+02 
2.440900e+02 -6.090030e+02 -2.295421e+02 
-2.682995e+02 -3.100290e+02 -2.207997e+02 
8.382851e+02 5.920752e+02 -2.631660e+02 
-3.393701e+02 -5.280249e+02 -2.698496e+02 
1.210285e+02 7.374453e+02 -9.302173e+02 
4.492775e+02 -4.909782e+02 -7.075732e+02 
2.287817e+02 1.335451e+02 3.753032e+01 
4.558676e+02 2.223067e+02 4.267016e+02 
-9.280732e+01 6.274855e+02 -3.522528e+02 
7.796655e+02 -6.616220e+02 -7.571395e+02 
1.398009e+02 -1.869161e+00 -1.932916e+02 
-1.534309e+02 -3.117270e+02 3.950637e+02 
-1.351049e+02 -2.964563e+02 -6.711993e+02 
-1.618249e+02 -5.650434e+01 -2.231691e+02 
-4.362034e+02 1.371156e+02 -1.049733e+03 
8.730385e+02 -5.772849e+02 4.902122e+02 
9.641880e+02 -6.365110e+02 -1.733411e+02 
2.998225e+02 1.051533e+03 4.085431e+02 
2.065269e+02 2.547452e+02 4.942489e+02 
1.448779e+02 1.097875e+03 -1.313036e+03 
1.846246e+02 2.151413e+02 -2.915651e+02 
5.508588e+01 -5.408808e+02 1.570098e+03 
1.110973e+03 6.982670e-01 -2.089280e+02 
-8.093989e+02 1.561805e+03 -8.306125e+02 
2.894832e+02 1.338990e+03 2.313129e+01 
-1.407029e+02 7.705698e+02 -4.667824e+02 
-9.873429e+02 1.314059e+02 2.064678e+02 
4.203906e+02 6.238358e+02 -1.059799e+03 
-8.290919e+01 1.475052e+02 -1.521830e+02 
2.975895e+02 -1.549991e+02 -6.253853e+02 
-1.371738e+02 2.489219e+02 4.676294e+02 
9.438335e+02 8.021402e+01 -4.434578e+02 
4.733865e+02 7.002956e+02 -5.094197e+02 
-5.778055e+02 -2.205097e+02 -1.500124e+02 
-1.380336e+02 8.453436e+02 -3.453844e+02 
-8.599285e+02 1.123987e+02 -6.541668e+02 
2.093232e+02 1.592462e+02 -5.134607e+02 
-2.739255e+02 4.861911e+02 2.465701e+02 
-1.006579e+03 1.922638e+02 4.302842e+02 
-3.641816e+02 -1.031059e+03 -3.355943e+02 
-8.185353e+02 -5.171404e+02 -1.311360e+03 
1.299054e+02 3.104668e+02 1.701888e+02 
1.380754e+01 -2.194867e+02 -1.292940e+02 
-5.045485e+02 -2.452194e+02 -5.533445e+02 
-6.550210e+02 -5.007228e+02 -8.099770e+02 
-3.921142e+02 -3.520130e+02 -3.268792e+02 
3.199854e+01 -3.132242e+02 -8.683290e+02 
-2.882679e+02 2.685817e+02 -4.621610e+02 
2.838715e+02 -1.340730e+02 -5.256175e+02 
-9.656951e+02 -5.348993e+02 -1.329243e+03 
-8.257750e+02 -2.154386e+02 -3.945596e+02 
4.965898e+01 -9.470110e+02 -2.242500e+02 
-4.147331e+02 -3.392514e+02 -8.708702e+02 
-1.011525e+03 -3.776130e+02 -1.073505e+03 
7.993073e+02 2.972752e+02 -1.423085e+03 
0.000000e+00 0.000000e+00 0.000000e+00 
0.000000e+00 0.000000e+00 0.000000e+00 
0.000000e+00 0.000000e+00 0.000000e+00 
0.000000e+00 0.000000e+00 0.000000e+00 
0.000000e+00 0.000000e+00 0.000000e+00 
0.000000e+00 0.000000e+00 0.000000e+00 
0.000000e+00 0.000000e+00 0.000000e+00 
0.000000e+00 0.000000e+00 0.000000e+00 
0.000000e+00 0.000000e+00 0.000000e+00 
0.000000e+00 0.000000e+00 0.000000e+00 
0.000000e+00 0.000000e+00 0.000000e+00 
0.000000e+00 0.000000e+00 0.000000e+00 
0.000000e+00 0.000000e+00 0.000000e+00 
0.000000e+00 0.000000e+00 0.000000e+00 
0.000000e+00 0.000000e+00 0.000000e+00 
0.000000e+00 0.000000e+00 0.000000e+00 
0.000000e+00 0.000000e+00 0.000000e+00 
0.000000e+00 0.000000e+00 0.000000e+00 
0.000000e+00 0.000000e+00 0.000000e+00 
0.000000e+00 0.000000e+00 0.000000e+00 
0.000000e+00 0.000000e+00 0.000000e+00 
0.000000e+00 0.000000e+00 0.000000e+00 
0.000000e+00 0.000000e+00 0.000000e+00 
0.000000e+00 0.000000e+00 0.000000e+00 
0.000000e+00 0.000000e+00 0.000000e+00 
0.000000e+00 0.000000e+00 0.000000e+00 
0.000000e+00 0.000000e+00 0.000000e+00 
0.000000e+00 0.000000e+00 0.000000e+00 
0.000000e+00 0.000000e+00 0.000000e+00 
0.000000e+00 0.000000e+00 0.000000e+00 
0.000000e+00 0.000000e+00 0.000000e+00 
0.000000e+00 0.000000e+00 0.000000e+00 
0.000000e+00 0.000000e+00 0.000000e+00 
0.000000e+00 0.000000e+00 0.000000e+00 
0.000000e+00 0.000000e+00 0.000000e+00 
0.000000e+00 0.000000e+00 0.000000e+00 
0.000000e+00 0.000000e+00 0.000000e+00 
0.000000e+00 0.000000e+00 0.000000e+00 
0.000000e+00 0.000000e+00 0.000000e+00 
0.000000e+00 0.000000e+00 0.000000e+00 
0.000000e+00 0.000000e+00 0.000000e+00 
0.000000e+00 0.000000e+00 0.000000e+00 
0.000000e+00 0.000000e+00 0.000000e+00 
0.000000e+00 0.000000e+00 0.000000e+00 
0.000000e+00 0.000000e+00 0.000000e+00 
0.000000e+00 0.000000e+00 0.000000e+00 
0.000000e+00 0.000000e+00 0.000000e+00 
0.000000e+00 0.000000e+00 0.000000e+00 
0.000000e+00 0.000000e+00 0.000000e+00 
0.000000e+00 0.000000e+00 0.000000e+00 
0.000000e+00 0.000000e+00 0.000000e+00 
0.000000e+00 0.000000e+00 0.000000e+00 
0.000000e+00 0.000000e+00 0.000000e+00 
0.000000e+00 0.000000e+00 0.000000e+00 
0.000000e+00 0.000000e+00 0.000000e+00 
0.000000e+00 0.000000e+00 0.000000e+00 
0.000000e+00 0.000000e+00 0.000000e+00 
0.000000e+00 0.000000e+00 0.000000e+00 
0.000000e+00 0.000000e+00 0.000000e+00 
0.000000e+00 0.000000e+00 0.000000e+00 
0.000000e+00 0.000000e+00 0.000000e+00 
0.000000e+00 0.000000e+00 0.000000e+00 
0.000000e+00 0.000000e+00 0.000000e+00 
0.000000e+00 0.000000e+00 0.000000e+00 
0.000000e+00 0.000000e+00 0.000000e+00 
0.000000e+00 0.000000e+00 0.000000e+00 
0.000000e+00 0.000000e+00 0.000000e+00 
0.000000e+00 0.000000e+00 0.000000e+00 
0.000000e+00 0.000000e+00 0.000000e+00 
0.000000e+00 0.000000e+00 0.000000e+00 
0.000000e+00 0.000000e+00 0.000000e+00 
0.000000e+00 0.000000e+00 0.000000e+00 
0.000000e+00 0.000000e+00 0.000000e+00 
0.000000e+00 0.000000e+00 0.000000e+00 
0.000000e+00 0.000000e+00 0.000000e+00 
0.000000e+00 0.000000e+00 0.000000e+00 
0.000000e+00 0.000000e+00 0.000000e+00 
0.000000e+00 0.000000e+00 0.000000e+00 
0.000000e+00 0.000000e+00 0.000000e+00 
0.000000e+00 0.000000e+00 0.000000e+00 
0.000000e+00 0.000000e+00 0.000000e+00 
0.000000e+00 0.000000e+00 0.000000e+00 
0.000000e+00 0.000000e+00 0.000000e+00 
0.000000e+00 0.000000e+00 0.000000e+00 
0.000000e+00 0.000000e+00 0.000000e+00 
0.000000e+00 0.000000e+00 0.000000e+00 
0.000000e+00 0.000000e+00 0.000000e+00 
0.000000e+00 0.000000e+00 0.000000e+00 
0.000000e+00 0.000000e+00 0.000000e+00 
0.000000e+00 0.000000e+00 0.000000e+00 
0.000000e+00 0.000000e+00 0.000000e+00 
0.000000e+00 0.000000e+00 0.000000e+00 
0.000000e+00 0.000000e+00 0.000000e+00 
0.000000e+00 0.000000e+00 0.000000e+00 
0.000000e+00 0.000000e+00 0.000000e+00 
0.000000e+00 0.000000e+00 0.000000e+00 
0.000000e+00 0.000000e+00 0.000000e+00 
0.000000e+00 0.000000e+00 0.000000e+00 
0.000000e+00 0.000000e+00 0.000000e+00 
0.000000e+00 0.000000e+00 0.000000e+00 
0.000000e+00 0.000000e+00 0.000000e+00 
0.000000e+00 0.000000e+00 0.000000e+00 
0.000000e+00 0.000000e+00 0.000000e+00 
0.000000e+00 0.000000e+00 0.000000e+00 
0.000000e+00 0.000000e+00 0.000000e+00 
0.000000e+00 0.000000e+00 0.000000e+00 
0.000000e+00 0.000000e+00 0.000000e+00 
0.000000e+00 0.000000e+00 0.000000e+00 
0.000000e+00 0.000000e+00 0.000000e+00 
0.000000e+00 0.000000e+00 0.000000e+00 
0.000000e+00 0.000000e+00 0.000000e+00 
0.000000e+00 0.000000e+00 0.000000e+00 
0.000000e+00 0.000000e+00 0.000000e+00 
0.000000e+00 0.000000e+00 0.000000e+00 
0.000000e+00 0.000000e+00 0.000000e+00 
0.000000e+00 0.000000e+00 0.000000e+00 
0.000000e+00 0.000000e+00 0.000000e+00 
0.000000e+00 0.000000e+00 0.000000e+00 
0.000000e+00 0.000000e+00 0.000000e+00 
0.000000e+00 0.000000e+00 0.000000e+00 
0.000000e+00 0.000000e+00 0.000000e+00 
0.000000e+00 0.000000e+00 0.000000e+00 
0.000000e+00 0.000000e+00 0.000000e+00 
0.000000e+00 0.000000e+00 0.000000e+00 
0.000000e+00 0.000000e+00 0.000000e+00 
0.000000e+00 0.000000e+00 0.000000e+00 
0.000000e+00 0.000000e+00 0.000000e+00 
0.000000e+00 0.000000e+00 0.000000e+00 
0.000000e+00 0.000000e+00 0.000000e+00 
0.000000e+00 0.000000e+00 0.000000e+00 
0.000000e+00 0.000000e+00 0.000000e+00 
0.000000e+00 0.000000e+00 0.000000e+00 
0.000000e+00 0.000000e+00 0.000000e+00 
0.000000e+00 0.000000e+00 0.000000e+00 
0.000000e+00 0.000000e+00 0.000000e+00 
0.000000e+00 0.000000e+00 0.000000e+00 
0.000000e+00 0.000000e+00 0.000000e+00 
0.000000e+00 0.000000e+00 0.000000e+00 
0.000000e+00 0.000000e+00 0.000000e+00 
0.000000e+00 0.000000e+00 0.000000e+00 
0.000000e+00 0.000000e+00 0.000000e+00 
0.000000e+00 0.000000e+00 0.000000e+00 
0.000000e+00 0.000000e+00 0.000000e+00 
0.000000e+00 0.000000e+00 0.000000e+00 
0.000000e+00 0.000000e+00 0.000000e+00 
0.000000e+00 0.000000e+00 0.000000e+00 
0.000000e+00 0.000000e+00 0.000000e+00 
0.000000e+00 0.000000e+00 0.000000e+00 
0.000000e+00 0.000000e+00 0.000000e+00 
0.000000e+00 0.000000e+00 0.000000e+00 
0.000000e+00 0.000000e+00 0.000000e+00 
0.000000e+00 0.000000e+00 0.000000e+00 
0.000000e+00 0.000000e+00 0.000000e+00 
0.000000e+00 0.000000e+00 0.000000e+00 
0.000000e+00 0.000000e+00 0.000000e+00 
0.000000e+00 0.000000e+00 0.000000e+00 
0.000000e+00 0.000000e+00 0.000000e+00 
0.000000e+00 0.000000e+00 0.000000e+00 
0.000000e+00 0.000000e+00 0.000000e+00 
0.000000e+00 0.000000e+00 0.000000e+00 
0.000000e+00 0.000000e+00 0.000000e+00 
0.000000e+00 0.000000e+00 0.000000e+00 
0.000000e+00 0.000000e+00 0.000000e+00 
0.000000e+00 0.000000e+00 0.000000e+00 
0.000000e+00 0.000000e+00 0.000000e+00 
0.000000e+00 0.000000e+00 0.000000e+00 
0.000000e+00 0.000000e+00 0.000000e+00 
0.000000e+00 0.000000e+00 0.000000e+00 
0.000000e+00 0.000000e+00 0.000000e+00 
0.000000e+00 0.000000e+00 0.000000e+00 
0.000000e+00 0.000000e+00 0.000000e+00 
0.000000e+00 0.000000e+00 0.000000e+00 
0.000000e+00 0.000000e+00 0.000000e+00 
0.000000e+00 0.000000e+00 0.000000e+00 
0.000000e+00 0.000000e+00 0.000000e+00 
0.000000e+00 0.000000e+00 0.000000e+00 
0.000000e+00 0.000000e+00 0.000000e+00 
0.000000e+00 0.000000e+00 0.000000e+00 
0.000000e+00 0.000000e+00 0.000000e+00 
0.000000e+00 0.000000e+00 0.000000e+00 
0.000000e+00 0.000000e+00 0.000000e+00 
0.000000e+00 0.000000e+00 0.000000e+00 
0.000000e+00 0.000000e+00 0.000000e+00 
0.000000e+00 0.000000e+00 0.000000e+00 
0.000000e+00 0.000000e+00 0.000000e+00 
0.000000e+00 0.000000e+00 0.000000e+00 
0.000000e+00 0.000000e+00 0.000000e+00 
0.000000e+00 0.000000e+00 0.000000e+00 
0.000000e+00 0.000000e+00 0.000000e+00 
0.000000e+00 0.000000e+00 0.000000e+00 
0.000000e+00 0.000000e+00 0.000000e+00 
0.000000e+00 0.000000e+00 0.000000e+00 
0.000000e+00 0.000000e+00 0.000000e+00 
0.000000e+00 0.000000e+00 0.000000e+00 
0.000000e+00 0.000000e+00 0.000000e+00 
0.000000e+00 0.000000e+00 0.000000e+00 
0.000000e+00 0.000000e+00 0.000000e+00 
0.000000e+00 0.000000e+00 0.000000e+00 
0.000000e+00 0.000000e+00 0.000000e+00 
0.000000e+00 0.000000e+00 0.000000e+00 
0.000000e+00 0.000000e+00 0.000000e+00 
0.000000e+00 0.000000e+00 0.000000e+00 
0.000000e+00 0.000000e+00 0.000000e+00 
0.000000e+00 0.000000e+00 0.000000e+00 
0.000000e+00 0.000000e+00 0.000000e+00 
0.000000e+00 0.000000e+00 0.000000e+00 
0.000000e+00 0.000000e+00 0.000000e+00 
0.000000e+00 0.000000e+00 0.000000e+00 
0.000000e+00 0.000000e+00 0.000000e+00 
0.000000e+00 0.000000e+00 0.000000e+00 
0.000000e+00 0.000000e+00 0.000000e+00 
0.000000e+00 0.000000e+00 0.000000e+00 
0.000000e+00 0.000000e+00 0.000000e+00 
0.000000e+00 0.000000e+00 0.000000e+00 
0.000000e+00 0.000000e+00 0.000000e+00 
0.000000e+00 0.000000e+00 0.000000e+00 
0.000000e+00 0.000000e+00 0.000000e+00 
0.000000e+00 0.000000e+00 0.000000e+00 
0.000000e+00 0.000000e+00 0.000000e+00 
0.000000e+00 0.000000e+00 0.000000e+00 
0.000000e+00 0.000000e+00 0.000000e+00 
0.000000e+00 0.000000e+00 0.000000e+00 
0.000000e+00 0.000000e+00 0.000000e+00 
0.000000e+00 0.000000e+00 0.000000e+00 
0.000000e+00 0.000000e+00 0.000000e+00 
0.000000e+00 0.000000e+00 0.000000e+00 
0.000000e+00 0.000000e+00 0.000000e+00 
0.000000e+00 0.000000e+00 0.000000e+00 
0.000000e+00 0.000000e+00 0.000000e+00 
0.000000e+00 0.000000e+00 0.000000e+00 
0.000000e+00 0.000000e+00 0.000000e+00 
0.000000e+00 0.000000e+00 0.000000e+00 
0.000000e+00 0.000000e+00 0.000000e+00 
0.000000e+00 0.000000e+00 0.000000e+00 
0.000000e+00 0.000000e+00 0.000000e+00 
0.000000e+00 0.000000e+00 0.000000e+00 
0.000000e+00 0.000000e+00 0.000000e+00 
0.000000e+00 0.000000e+00 0.000000e+00 
0.000000e+00 0.000000e+00 0.000000e+00 
0.000000e+00 0.000000e+00 0.000000e+00 
0.000000e+00 0.000000e+00 0.000000e+00 
0.000000e+00 0.000000e+00 0.000000e+00 
0.000000e+00 0.000000e+00 0.000000e+00 
0.000000e+00 0.000000e+00 0.000000e+00 
0.000000e+00 0.000000e+00 0.000000e+00 
0.000000e+00 0.000000e+00 0.000000e+00 
0.000000e+00 0.000000e+00 0.000000e+00 
0.000000e+00 0.000000e+00 0.000000e+00 
0.000000e+00 0.000000e+00 0.000000e+00 
0.000000e+00 0.000000e+00 0.000000e+00 
0.000000e+00 0.000000e+00 0.000000e+00 
0.000000e+00 0.000000e+00 0.000000e+00 
0.000000e+00 0.000000e+00 0.000000e+00 
0.000000e+00 0.000000e+00 0.000000e+00 
0.000000e+00 0.000000e+00 0.000000e+00 
0.000000e+00 0.000000e+00 0.000000e+00 
0.000000e+00 0.000000e+00 0.000000e+00 
0.000000e+00 0.000000e+00 0.000000e+00 
0.000000e+00 0.000000e+00 0.000000e+00 
0.000000e+00 0.000000e+00 0.000000e+00 
0.000000e+00 0.000000e+00 0.000000e+00 
0.000000e+00 0.000000e+00 0.000000e+00 
0.000000e+00 0.000000e+00 0.000000e+00 
0.000000e+00 0.000000e+00 0.000000e+00 
0.000000e+00 0.000000e+00 0.000000e+00 
0.000000e+00 0.000000e+00 0.000000e+00 
0.000000e+00 0.000000e+00 0.000000e+00 
0.000000e+00 0.000000e+00 0.000000e+00 
0.000000e+00 0.000000e+00 0.000000e+00 
0.000000e+00 0.000000e+00 0.000000e+00 
0.000000e+00 0.000000e+00 0.000000e+00 
0.000000e+00 0.000000e+00 0.000000e+00 
0.000000e+00 0.000000e+00 0.000000e+00 
0.000000e+00 0.000000e+00 0.000000e+00 
0.000000e+00 0.000000e+00 0.000000e+00 
0.000000e+00 0.000000e+00 0.000000e+00 
0.000000e+00 0.000000e+00 0.000000e+00 