# vtk DataFile Version 3.1
*description-name of input file* step:1701 
ASCII
DATASET UNSTRUCTURED_GRID
POINTS 1605 FLOAT
-7.052528e-09 -5.629987e-09 -3.276439e-10
-7.740497e-09 -4.434867e-09 -5.503838e-10
-6.332792e-09 -4.774816e-09 -7.619283e-10
-7.712952e-09 -4.057104e-09 2.059219e-09
-5.553876e-09 -5.983695e-09 -1.611566e-10
1.209091e-08 7.006386e-09 -1.080456e-08
1.367504e-08 7.333698e-09 -1.083381e-08
1.291302e-08 5.965802e-09 -1.204393e-08
-6.265567e-09 -6.146005e-09 8.141003e-10
-6.409389e-09 -2.852373e-09 8.751435e-10
-4.459533e-09 -4.642938e-09 -1.056693e-09
-6.194220e-09 -2.799289e-09 -3.581330e-10
-5.696317e-09 -5.413139e-09 2.336328e-09
-5.911015e-09 -3.780827e-09 1.830443e-09
-5.176904e-09 -3.562550e-09 -1.572946e-09
-7.503262e-09 -4.463135e-09 3.151294e-09
-3.613820e-09 -5.377596e-09 1.126412e-10
-6.505950e-09 -1.177651e-09 2.491723e-10
-5.386268e-09 -1.426714e-09 -8.938472e-10
-4.083090e-09 -3.982644e-09 -3.265196e-09
-5.196656e-09 -2.728369e-09 -2.907554e-09
-4.195601e-09 -1.960301e-09 -3.895674e-09
-6.370182e-09 -2.604329e-09 2.377673e-09
-5.736887e-09 2.138293e-10 -2.335502e-09
-6.235807e-09 4.230259e-10 -8.666286e-10
-3.697145e-09 -4.776254e-09 2.008220e-09
-7.072663e-09 -1.306992e-09 1.281457e-09
-5.846815e-09 -3.491096e-09 4.178769e-09
-4.100712e-09 -2.133842e-09 -3.174162e-10
-8.003579e-09 -2.293239e-09 3.120782e-09
-2.488465e-09 -4.409903e-09 -2.244570e-09
-2.834704e-09 -3.250446e-09 -3.867884e-09
-2.324184e-09 -4.184031e-09 -3.286035e-09
-3.532037e-09 -3.503460e-09 -5.629691e-10
-5.998309e-09 -2.494291e-09 4.184508e-09
-4.034350e-09 -9.712309e-10 -2.206454e-09
-5.986763e-09 -6.409829e-10 2.185313e-09
-4.663146e-09 -3.544321e-10 4.760654e-10
-2.912619e-09 -1.999507e-09 -2.007549e-09
-3.915024e-09 -4.072863e-09 3.731870e-09
-4.684938e-09 6.797042e-11 -6.503953e-10
-3.812782e-09 4.302967e-10 -5.204816e-09
-3.948708e-09 4.754832e-10 -2.893286e-09
-4.781721e-09 9.654888e-10 -3.994865e-09
-4.266922e-09 -2.504905e-09 2.144969e-09
-1.777462e-09 -3.208516e-09 -7.110642e-10
-4.368489e-09 2.273200e-09 -4.359945e-09
-2.858035e-09 -1.522311e-09 -3.286685e-09
-3.157365e-09 -2.086632e-11 -2.603804e-09
-1.422500e-09 -1.814210e-09 -3.304193e-09
-3.216106e-09 2.905275e-10 -6.287148e-10
-3.016869e-09 -1.956187e-09 2.044380e-10
-3.374893e-09 -1.215533e-10 -4.747932e-09
-1.784241e-09 -2.363704e-09 -1.757548e-09
-3.777750e-09 -4.460198e-10 8.297212e-09
-2.314849e-09 -1.530785e-09 7.584512e-09
-1.779640e-09 3.425249e-10 7.350654e-09
-1.579494e-09 5.626045e-10 -4.013682e-09
-5.782741e-09 -3.170989e-09 6.008176e-09
-4.270681e-09 2.391815e-09 -2.583023e-09
-3.597004e-09 -2.881253e-09 3.853061e-09
-4.512457e-09 -2.658204e-10 2.607868e-09
-3.936119e-09 -1.389323e-09 1.417587e-09
-5.400552e-09 2.379474e-09 -2.782319e-10
-4.893421e-09 5.784535e-10 1.097189e-09
-6.571215e-09 1.804811e-09 1.782206e-09
-4.731099e-09 -4.637211e-09 5.701166e-09
-4.775870e-09 -3.857820e-09 6.875546e-09
-6.195803e-09 -1.666203e-09 6.708044e-09
-2.088896e-09 1.835589e-09 1.987104e-09
-2.118236e-10 2.388371e-09 3.698548e-09
-9.554494e-10 1.774870e-09 6.569071e-10
-4.530584e-09 6.909463e-10 -1.025301e-09
-3.062948e-09 -4.436252e-09 5.392222e-09
9.430171e-10 4.114852e-10 3.664803e-09
7.582896e-10 1.276397e-09 4.363308e-09
-2.230715e-11 8.326539e-10 5.592432e-09
-5.517528e-09 3.214935e-09 1.167348e-09
-4.852079e-09 -1.638880e-09 5.438816e-09
-1.080468e-09 -1.487772e-10 -1.269592e-09
-4.547469e-09 -2.256782e-09 4.646548e-09
-3.351870e-09 1.688214e-10 8.597923e-10
-2.092690e-09 -5.102261e-10 1.843413e-10
-5.933796e-09 2.501221e-09 3.765494e-09
-2.345721e-09 -5.136294e-09 3.744807e-09
-3.120580e-09 2.601801e-09 -3.954179e-09
-2.214253e-09 -3.858391e-09 2.681048e-09
-5.594758e-09 -5.259177e-10 5.515696e-09
-2.712690e-09 1.726266e-09 -2.458269e-09
-4.147742e-09 -5.682537e-11 4.931866e-09
-2.853278e-09 -2.942941e-09 5.023737e-09
-5.755774e-09 -7.377596e-10 4.328320e-09
-3.379569e-09 -1.105291e-09 4.265472e-09
-4.872077e-10 -1.597562e-09 2.197022e-11
-4.422760e-09 3.414466e-09 2.257601e-09
-3.401513e-09 2.936298e-09 -8.228603e-10
-2.057372e-10 -1.552158e-09 -3.428088e-09
4.727893e-10 -2.850705e-09 -2.671162e-09
-3.985326e-09 -2.467343e-09 7.809754e-09
-5.261732e-09 -1.477429e-09 7.723383e-09
-5.362524e-09 2.947641e-10 7.878382e-09
8.243145e-10 2.383012e-09 3.200590e-09
-3.422688e-09 1.227605e-09 8.216474e-10
-3.794080e-09 2.931191e-09 4.230092e-10
-6.530172e-09 1.295780e-09 4.809038e-09
-4.393723e-09 -9.106082e-11 3.606032e-09
-3.698535e-09 -2.594818e-09 6.294500e-09
-1.591690e-10 6.025476e-11 -3.136952e-09
-1.445779e-09 -2.809156e-09 3.705117e-09
-5.050666e-09 1.413808e-09 6.874236e-09
-3.605265e-09 7.875654e-10 3.291246e-09
-4.163568e-09 2.145489e-09 5.467807e-09
-4.212321e-09 1.858380e-09 2.987734e-09
-3.701121e-10 -3.912704e-09 2.724650e-09
8.379578e-10 -3.614594e-09 4.397949e-09
-4.069498e-09 2.153914e-09 1.813471e-09
5.122241e-10 -1.865774e-09 -4.242334e-10
-4.192342e-09 2.813279e-09 4.034717e-09
1.594902e-09 -8.921801e-10 -3.178088e-09
-7.716923e-10 -3.863855e-09 6.132691e-09
-6.828527e-10 -6.603602e-10 1.219493e-09
-2.232066e-09 -3.251487e-09 6.531942e-09
-1.906538e-09 -2.369581e-09 5.555748e-09
-1.586284e-09 -3.636456e-10 2.784677e-09
-1.394818e-09 -1.766466e-09 4.408211e-09
-2.714682e-09 1.410307e-09 3.623589e-09
1.769319e-09 -8.931408e-10 -1.260485e-09
6.464491e-10 8.285180e-10 -1.380510e-09
1.460836e-09 -6.375883e-10 5.777656e-09
-3.210992e-09 1.230097e-09 6.072760e-09
9.548311e-10 7.207518e-10 -3.285388e-09
9.169669e-10 -4.720096e-09 3.116031e-09
-7.834888e-10 -6.684036e-10 4.019159e-09
9.784933e-10 -9.990122e-10 -1.507975e-10
6.665492e-10 -3.450890e-09 5.472587e-09
-2.991872e-09 8.509743e-10 7.440238e-09
-2.196882e-09 2.313019e-09 5.733633e-09
-1.185150e-09 -1.951788e-09 6.727888e-09
2.144149e-09 -4.634535e-09 3.660182e-09
1.975330e-09 -3.758812e-09 2.454430e-09
-3.009801e-10 -1.599642e-09 2.778662e-09
-2.669720e-10 -2.683495e-09 7.191564e-09
1.403813e-09 -1.657066e-09 1.692735e-09
1.978137e-09 -8.144125e-11 -2.209975e-09
-9.856053e-10 1.635856e-09 3.480055e-09
-8.038184e-10 -1.248772e-09 8.050057e-09
1.788349e-09 5.629933e-10 1.980837e-13
2.702309e-09 -3.368784e-09 4.705508e-09
2.945066e-09 -3.839341e-09 3.471779e-09
1.844983e-09 1.496650e-09 -1.332863e-09
5.560115e-10 -2.278181e-09 6.206499e-09
-1.653400e-09 7.237824e-10 5.148616e-09
2.835381e-09 -2.495849e-10 9.285221e-10
2.463884e-09 3.922861e-10 -4.046011e-09
1.767511e-09 -2.604490e-09 4.817155e-09
3.660943e-09 -2.649665e-09 2.435204e-09
3.462006e-09 5.362139e-10 -2.172101e-09
2.640014e-09 2.347208e-09 -2.701930e-09
2.631580e-09 2.240048e-09 -4.224311e-09
3.332641e-09 9.562290e-10 -4.036057e-09
4.259596e-09 1.574380e-09 -5.444322e-09
1.123831e-09 -1.455685e-09 4.145502e-09
6.773022e-10 -7.522606e-10 7.258548e-09
2.593082e-09 -6.792453e-10 2.104035e-09
1.352084e-09 1.522498e-09 6.730232e-10
2.086638e-09 1.511462e-09 -1.382078e-10
4.507726e-09 1.665396e-09 -3.775386e-09
3.075752e-10 1.483797e-09 7.464849e-09
1.467133e-09 1.199410e-09 2.101982e-09
3.014763e-09 -2.176130e-09 3.453835e-09
2.026961e-09 -1.864152e-10 3.473633e-09
3.496490e-09 -3.468228e-10 2.127228e-09
4.463000e-09 2.784573e-09 -3.711480e-09
3.144776e-09 9.433042e-10 -8.842635e-10
3.424732e-09 1.517960e-09 -1.844951e-09
4.981745e-09 2.640008e-09 -5.190272e-09
3.305446e-09 1.015205e-09 8.187572e-10
5.332106e-09 1.964791e-09 -6.112974e-09
5.430678e-09 1.542213e-09 -4.811523e-09
3.754648e-09 4.194287e-11 7.670966e-11
3.072155e-09 1.009681e-09 2.851064e-09
6.462504e-09 1.466841e-09 -5.805602e-09
5.907235e-09 2.760012e-09 -4.087432e-09
7.306846e-09 3.032036e-09 -6.782516e-09
6.809143e-09 2.147183e-09 -5.097630e-09
7.270422e-09 2.145048e-09 -6.346934e-09
6.146539e-09 3.557388e-09 -4.812058e-09
7.437562e-09 3.397444e-09 -5.432480e-09
8.703163e-09 2.923341e-09 -5.947695e-09
8.282868e-09 2.761037e-09 -7.077045e-09
8.585723e-09 4.136466e-09 -6.738622e-09
9.395905e-09 3.054886e-09 -6.564440e-09
1.032858e-08 4.398573e-09 -7.726649e-09
1.018784e-08 5.042374e-09 -7.771383e-09
9.509225e-09 3.889302e-09 -5.943762e-09
1.107676e-08 4.428278e-09 -6.760484e-09
1.009942e-08 4.878494e-09 -6.082450e-09
1.140237e-08 4.983718e-09 -8.592468e-09
1.132089e-08 6.515199e-09 -7.545820e-09
1.122055e-08 5.295450e-09 -6.556972e-09
1.281228e-08 4.832464e-09 -8.200456e-09
1.140730e-08 6.598193e-09 -1.014801e-08
1.173505e-08 5.984441e-09 -1.031782e-08
1.122041e-08 6.073744e-09 -8.943638e-09
1.220865e-08 5.107428e-09 -9.067251e-09
1.159074e-08 5.825187e-09 -7.044763e-09
1.288549e-08 5.460176e-09 -8.003585e-09
1.340308e-08 5.090441e-09 -9.072135e-09
1.401840e-08 5.389806e-09 -1.048929e-08
1.176342e-08 6.959118e-09 -8.807003e-09
1.427232e-08 6.782958e-09 -1.012371e-08
1.381616e-08 6.275693e-09 -8.869601e-09
1.359687e-08 7.797204e-09 -9.213384e-09
1.965811e-09 1.504056e-09 -7.355353e-10
-4.380598e-09 -3.162581e-09 7.342650e-09
7.288634e-09 2.588542e-09 -6.564725e-09
7.372204e-09 3.214740e-09 -6.107498e-09
1.250196e-08 6.486094e-09 -1.142424e-08
2.328765e-09 1.268852e-09 7.458902e-10
-3.950522e-09 1.792490e-10 -6.395551e-10
8.070362e-09 3.160393e-09 -5.690088e-09
4.924387e-10 3.657683e-10 7.361699e-09
-2.170096e-10 3.398704e-10 -1.325051e-09
-3.034992e-09 -1.010187e-09 -2.305676e-09
7.794857e-09 2.896536e-09 -6.929780e-09
-4.526201e-09 1.678652e-09 -3.288944e-09
-5.732318e-09 1.191632e-09 1.439698e-09
-1.136578e-10 1.456126e-09 3.921681e-09
1.292333e-09 -1.046637e-09 4.961579e-09
1.025821e-08 4.720473e-09 -7.749016e-09
-4.629997e-09 -3.772597e-09 -2.419071e-09
-3.931789e-09 2.542552e-09 1.118240e-09
-3.225141e-09 -2.912097e-09 4.438399e-09
-6.044372e-09 2.509873e-09 1.474777e-09
1.114866e-08 4.861864e-09 -6.658728e-09
1.426340e-10 1.158226e-09 6.528641e-09
2.436401e-10 4.443864e-10 -2.258731e-09
2.732330e-10 1.832384e-09 4.030928e-09
-4.699774e-09 -1.947831e-09 5.042682e-09
-1.676158e-09 -2.589369e-09 4.630433e-09
-4.108420e-09 3.172828e-09 1.340305e-09
-2.128602e-09 -2.532328e-09 -3.586039e-09
1.329403e-08 6.649750e-09 -1.143887e-08
[...]
POINT_DATA 1605
VECTORS vector_force float
-3.132695e+02 8.466877e+02 2.300796e+02 
2.064817e+02 1.263228e+03 -1.284838e+02 
5.393240e+02 -2.771484e+02 -3.185867e+02 
7.786327e+02 5.179734e+02 -1.180966e+02 
-6.674576e+02 -5.745421e+02 3.802701e+02 
-5.800608e+02 -1.953177e+01 -2.744998e+02 
-9.388685e+02 1.373800e+03 -3.188782e+02 
-5.156691e+02 3.385387e+02 -5.305429e+02 
-1.266283e+02 1.161542e+02 -3.169855e+02 
-1.407367e+02 6.367211e+02 -6.120057e+02 
-2.417413e+02 1.471703e+02 -1.617162e+02 
2.847692e+02 3.966616e+02 9.332621e+00 
-2.100827e+02 6.539596e+01 -8.397483e+02 
1.679153e+01 2.777796e+02 -1.358656e+02 
-4.282836e+02 4.055915e+02 1.452218e+02 
5.395668e+02 5.255247e+02 -1.998774e+02 
-5.762039e+02 1.708504e+02 -9.540942e+02 
4.472824e+01 7.935804e+02 7.303432e+01 
-2.849933e+02 -3.558890e+01 5.922706e+02 
9.887098e+02 -3.012934e+01 2.264847e+02 
1.086482e+03 8.538706e+02 2.154004e+01 
-6.355191e+01 4.936509e+02 -2.474624e+02 
2.116194e+02 3.529440e+01 -4.307362e+01 
6.165085e+02 -1.479560e+03 -8.762596e+02 
-3.290240e+02 7.086805e+02 -1.115733e+03 
4.279338e+02 7.466375e+02 -1.998515e+02 
6.654268e+02 8.518303e+02 -9.430620e+02 
-2.708394e+01 -9.249865e+01 -1.403480e+02 
3.966536e+02 -7.658707e+02 -1.907615e+02 
5.463900e+02 4.905515e+02 -4.487144e+00 
2.884894e+02 2.854602e+02 -7.403716e+02 
5.193992e+02 -3.701310e+02 2.968072e+02 
1.417293e+03 -5.510661e+02 4.532545e+01 
4.688030e+02 4.777406e+00 -2.561017e+02 
2.910991e+02 3.946311e+01 2.052565e+02 
-1.421205e+02 -8.091331e+02 2.665925e+02 
4.182027e+02 -3.453021e+02 1.732823e+02 
3.291719e+02 1.330902e+02 3.656252e+02 
5.829595e+02 -1.512216e+02 1.888085e+02 
9.514126e+01 -8.867992e+02 7.472209e+01 
-2.190079e+02 -9.517515e+01 -2.936546e+02 
2.283441e+02 3.219893e+02 1.607168e+02 
7.641444e+02 -5.668007e+01 5.152556e+02 
-3.660481e+02 -1.627136e+02 -9.602453e+01 
6.090744e+00 -3.903714e+02 6.375120e+02 
-2.151403e+02 4.983644e+02 1.205652e+02 
-3.918320e+02 -6.778157e+02 6.435656e+02 
-1.133815e+03 9.586583e+02 5.109613e+02 
9.023738e+01 1.033851e+02 6.345536e+01 
-1.995771e+02 9.028444e+02 6.351162e+02 
-6.156183e+02 -6.514902e+01 -2.749759e+02 
-3.062810e+02 -7.150685e+02 -1.600067e+02 
4.085804e+02 -7.115025e+02 -1.592666e+02 
-3.843796e+02 2.050621e+02 -8.141773e+01 
4.812212e+02 2.108853e+02 -3.082459e+02 
1.498108e+02 -7.868068e+01 -1.068482e+02 
-9.515149e+01 -5.150961e+02 7.232643e+01 
2.601237e+02 3.378953e+02 2.228814e+02 
8.551561e+02 1.258609e+01 -8.218443e+02 
5.103522e+02 -6.654576e+02 7.835691e+02 
4.062441e+02 -9.477741e+01 1.999800e+02 
2.319668e+02 -4.500979e+02 8.085373e+02 
-1.623317e+01 -2.042824e+02 9.332730e+01 
-5.606922e+01 1.674427e+02 -4.137294e+02 
-4.734681e+02 -5.363855e+02 -1.045692e+02 
-3.463774e+02 -1.146813e+02 1.164105e+02 
5.219429e+01 -2.917122e+02 -7.320271e+02 
6.719331e+02 -1.978699e+01 -4.782716e+02 
-9.918406e+02 4.625212e+02 -9.192323e+02 
-3.506528e+02 1.004832e+02 -2.281814e+01 
7.131539e+01 4.413798e+02 -8.262279e+01 
-1.117861e+03 7.695250e+02 -4.893051e+02 
-1.341158e+02 3.269548e+02 4.632058e+02 
3.636049e+00 -1.083791e+02 -1.016187e+02 
1.925820e+01 1.878252e+02 -8.841358e+02 
8.499100e+01 -1.454693e+02 -2.919033e+02 
2.335014e+02 7.791167e+02 -3.600265e+02 
-2.635907e+02 -3.819659e+02 4.622133e+02 
-1.158832e+02 2.420451e+02 -2.981366e+01 
1.209530e+02 1.126729e+01 -1.271106e+02 
7.666593e+01 -1.897142e+02 -9.241559e+01 
-3.872307e+02 -3.526471e+02 -3.678550e+02 
-5.932920e+02 -2.823589e+02 -9.513866e+01 
1.458315e+02 -7.248092e+01 -1.196384e+02 
4.871441e+02 -1.460823e+03 2.048287e+02 
-8.433720e+02 9.005967e+02 -6.558017e-01 
3.048605e+02 -1.853308e+02 -3.751561e+01 
-2.411822e+02 6.724546e+02 1.443831e+02 
-2.814244e+02 5.138949e+02 1.530127e+02 
4.284039e+02 2.410992e+02 3.536422e+01 
-2.367513e+02 -5.011075e+01 -3.504800e+02 
8.798085e+01 -4.592039e+01 2.640073e+01 
7.251885e+02 -2.411395e+02 -2.595735e+02 
1.518722e+02 7.291757e+01 -7.721432e+02 
3.689508e+02 -6.056798e+01 -1.233826e+02 
-1.393697e+03 1.244633e+03 8.016560e+02 
-2.625411e+02 1.592093e+02 1.594766e+02 
-1.333878e+02 -4.979426e+02 -3.500666e+02 
-8.014664e+02 3.390574e+02 -4.524504e+01 
-3.334508e+02 3.800985e+02 -2.982877e+01 
2.052859e+02 -7.885479e+00 5.766710e+02 
-1.671780e+02 2.987714e+02 -4.264089e+02 
1.091601e+02 -5.660642e+02 2.615928e+02 
-1.063991e+03 3.025055e+02 6.605594e+02 
1.252538e+02 5.892084e+02 1.042117e+03 
1.414136e+02 3.479559e+02 -1.069212e+02 
5.526500e+02 3.193217e+02 -4.035723e+02 
-1.693281e+02 2.433789e+02 3.010814e+01 
-7.314637e+00 -5.844201e+02 -2.871280e+02 
6.631282e+02 -2.822205e+02 -8.970955e+01 
-2.110617e+02 3.407173e+02 3.613541e+02 
1.221860e+02 4.665876e+01 -1.993574e+01 
-3.026526e+02 1.190926e+02 -2.299389e+02 
-2.485893e+02 7.482622e+02 1.534301e+02 
5.460494e+02 2.485594e+02 -4.385631e+02 
-6.218554e+02 -3.897006e+02 -2.027136e+02 
-6.012729e+02 -3.508645e+02 7.106388e+02 
7.879883e+02 -4.356859e+02 -7.045885e+02 
4.426818e+02 2.579876e+02 1.912046e+02 
-1.289363e+02 -4.259184e+02 1.361729e+02 
-8.735090e+02 -1.656972e+02 -5.450785e+02 
5.194344e+02 3.684223e+01 3.851945e+02 
5.730189e+01 -1.678543e+02 1.387793e+02 
-1.722549e+02 -3.768059e+02 1.813577e+02 
-1.060647e+02 -2.489282e+02 4.961225e+01 
-2.004783e+02 -2.746448e+02 -2.167608e+01 
-3.669066e+02 4.096664e+02 2.692400e+02 
1.502928e+02 6.213821e+02 3.195259e+02 
1.560245e+02 8.925433e+01 -9.841517e+02 
1.484518e+02 3.302095e+02 -3.602799e+02 
7.378553e+02 -9.269133e+01 9.358589e+02 
4.760426e+02 -4.393549e+01 3.152948e+02 
-1.775417e+02 -2.062405e+02 2.632373e+02 
-5.786772e+02 2.789791e+02 2.035863e+02 
-1.839944e+02 -2.270517e+02 -3.907511e+02 
8.711225e+02 -1.578428e+02 -2.028081e+02 
-3.917634e+02 9.192608e+02 7.751652e+02 
5.530420e+02 -7.238050e+02 2.563167e+02 
1.435025e+02 -1.014936e+02 -4.328304e+02 
3.005235e+02 4.233274e+02 3.873704e+02 
-6.070985e+02 -2.320406e+02 -6.837107e+01 
3.001954e+02 -5.525983e+02 9.009007e+01 
3.296620e+02 3.774085e+01 7.504240e+01 
3.580089e+02 2.760708e+02 4.569795e+02 
-4.995063e+02 2.657023e+02 -1.374729e+02 
3.217594e+02 1.386928e+02 -4.387305e+02 
-7.054387e+02 3.344801e+02 -4.553742e+02 
3.474184e+01 -7.154393e+01 -1.092648e+03 
6.681693e+02 1.994179e+02 -7.465422e+02 
1.082642e+02 5.942574e+02 -5.924295e+02 
-2.314770e+02 -3.081355e+02 -4.255358e+02 
3.708310e+02 -1.562835e+02 1.417240e+02 
-1.630993e+02 -4.014521e+00 -4.327256e+02 
1.099542e+02 7.710798e+01 1.957643e+02 
3.972817e+02 -3.596542e+02 -1.032054e+02 
3.053502e+02 2.615492e+02 -3.237768e+02 
7.399863e+02 -4.658742e+02 8.612880e+01 
2.985426e+02 2.614759e+01 1.140709e+01 
-5.201680e+02 3.915670e+02 1.613641e+02 
-3.155785e+02 3.615733e+02 -1.118036e+02 
7.187222e+02 -3.169843e+02 4.461203e+02 
2.372345e+02 1.701873e+02 -2.792407e+02 
2.013823e+02 9.424693e+01 -8.339828e+02 
3.430376e+02 6.514054e+02 -3.404878e+01 
-3.233046e+02 -3.275412e+02 3.801474e+01 
-8.879820e+02 -4.624078e+02 -3.218756e+02 
-4.974262e+01 6.124247e+02 -2.439052e+02 
2.371001e+02 6.590120e+02 -2.450239e+02 
-2.482968e+02 3.358912e+02 -4.958966e+02 
4.531842e+02 7.393912e+02 -6.878426e+02 
-6.550765e+02 1.659897e+02 -8.807870e+02 
9.261211e+02 -3.113244e+01 -1.228196e+03 
6.734800e+01 7.138960e+01 -7.026726e+02 
7.658506e+02 2.448049e+02 -1.775077e+02 
3.080328e+02 -4.002167e+02 2.385075e+02 
2.619498e+02 -6.991480e+02 -1.074203e+03 
-5.158298e+02 1.020288e+03 9.353213e+02 
6.848580e+02 -6.224006e+02 -4.969819e+02 
-9.833405e+02 -2.457030e+02 -2.889474e+02 
-7.403286e+02 -5.034604e+02 -5.039388e+02 
8.273137e+02 2.951480e+02 -6.335142e+01 
3.666353e+02 1.193550e+02 6.443546e+02 
8.162906e+02 7.883536e+02 -8.712955e+02 
-6.571726e+02 1.666462e+02 -2.387241e+02 
1.799479e+02 -1.135616e+02 -8.402059e+01 
-2.801978e+02 2.420642e+02 -3.935817e+02 
-9.391710e+02 -1.339045e+02 -1.365150e+03 
1.984104e+02 7.369674e+02 -9.882171e+02 
-4.582885e+01 -3.263144e+01 -7.924146e+02 
-5.332736e+02 5.822250e+02 -1.832059e+02 
-1.124995e+02 2.707507e+02 3.289476e+02 
-6.708056e+02 1.996220e+02 9.944823e+00 
5.368231e+02 1.520346e+02 -1.751403e+02 
8.013486e+02 1.153970e+03 6.663392e+02 
-5.633481e+02 6.826076e+02 -1.953325e+01 
2.801186e+02 3.726479e+02 3.412732e+02 
-4.349363e+02 -1.692731e+02 -3.603409e+02 
1.425219e+03 3.866937e+02 -4.356419e+02 
1.146761e+03 5.392848e+02 -7.120743e+02 
1.381553e+02 -1.011507e+02 -1.306610e+02 
9.683862e+01 -6.011681e+02 -6.107064e+02 
1.198062e+03 -7.013749e+02 3.936217e+02 
3.392146e+02 -1.215556e+02 -6.010638e+02 
7.715460e+02 -1.338397e+02 -2.477415e+02 
7.725958e+02 3.886410e+02 1.477911e+02 
-3.204669e+02 6.888832e+02 -4.548202e+02 
4.962033e+02 7.828870e+02 -6.977126e+02 
7.830464e+02 4.820605e+02 -2.994307e+02 
-1.143486e+02 1.307723e+01 -4.395697e+02 
1.254788e+03 -2.852945e+02 -8.135816e+01 
-4.849565e+02 1.157381e+03 -1.275474e+03 
1.189519e+03 1.058729e+03 1.527529e+02 
-2.929198e+02 1.745274e+03 -5.260962e+02 
0.000000e+00 0.000000e+00 0.000000e+00 
0.000000e+00 0.000000e+00 0.000000e+00 
0.000000e+00 0.000000e+00 0.000000e+00 
0.000000e+00 0.000000e+00 0.000000e+00 
0.000000e+00 0.000000e+00 0.000000e+00 
0.000000e+00 0.000000e+00 0.000000e+00 
0.000000e+00 0.000000e+00 0.000000e+00 
0.000000e+00 0.000000e+00 0.000000e+00 
0.000000e+00 0.000000e+00 0.000000e+00 
0.000000e+00 0.000000e+00 0.000000e+00 
0.000000e+00 0.000000e+00 0.000000e+00 
0.000000e+00 0.000000e+00 0.000000e+00 
0.000000e+00 0.000000e+00 0.000000e+00 
0.000000e+00 0.000000e+00 0.000000e+00 
0.000000e+00 0.000000e+00 0.000000e+00 
0.000000e+00 0.000000e+00 0.000000e+00 
0.000000e+00 0.000000e+00 0.000000e+00 
0.000000e+00 0.000000e+00 0.000000e+00 
0.000000e+00 0.000000e+00 0.000000e+00 
0.000000e+00 0.000000e+00 0.000000e+00 
0.000000e+00 0.000000e+00 0.000000e+00 
0.000000e+00 0.000000e+00 0.000000e+00 
0.000000e+00 0.000000e+00 0.000000e+00 
0.000000e+00 0.000000e+00 0.000000e+00 
0.000000e+00 0.000000e+00 0.000000e+00 
0.000000e+00 0.000000e+00 0.000000e+00 
0.000000e+00 0.000000e+00 0.000000e+00 
0.000000e+00 0.000000e+00 0.000000e+00 
0.000000e+00 0.000000e+00 0.000000e+00 
0.000000e+00 0.000000e+00 0.000000e+00 
0.000000e+00 0.000000e+00 0.000000e+00 
0.000000e+00 0.000000e+00 0.000000e+00 
0.000000e+00 0.000000e+00 0.000000e+00 
0.000000e+00 0.000000e+00 0.000000e+00 
0.000000e+00 0.000000e+00 0.000000e+00 
0.000000e+00 0.000000e+00 0.000000e+00 
0.000000e+00 0.000000e+00 0.000000e+00 
0.000000e+00 0.000000e+00 0.000000e+00 
0.000000e+00 0.000000e+00 0.000000e+00 
0.000000e+00 0.000000e+00 0.000000e+00 
0.000000e+00 0.000000e+00 0.000000e+00 
0.000000e+00 0.000000e+00 0.000000e+00 
0.000000e+00 0.000000e+00 0.000000e+00 
0.000000e+00 0.000000e+00 0.000000e+00 
0.000000e+00 0.000000e+00 0.000000e+00 
0.000000e+00 0.000000e+00 0.000000e+00 
0.000000e+00 0.000000e+00 0.000000e+00 
0.000000e+00 0.000000e+00 0.000000e+00 
0.000000e+00 0.000000e+00 0.000000e+00 
0.000000e+00 0.000000e+00 0.000000e+00 
0.000000e+00 0.000000e+00 0.000000e+00 
0.000000e+00 0.000000e+00 0.000000e+00 
0.000000e+00 0.000000e+00 0.000000e+00 
0.000000e+00 0.000000e+00 0.000000e+00 
0.000000e+00 0.000000e+00 0.000000e+00 
0.000000e+00 0.000000e+00 0.000000e+00 
0.000000e+00 0.000000e+00 0.000000e+00 
0.000000e+00 0.000000e+00 0.000000e+00 
0.000000e+00 0.000000e+00 0.000000e+00 
0.000000e+00 0.000000e+00 0.000000e+00 
0.000000e+00 0.000000e+00 0.000000e+00 
0.000000e+00 0.000000e+00 0.000000e+00 
0.000000e+00 0.000000e+00 0.000000e+00 
0.000000e+00 0.000000e+00 0.000000e+00 
0.000000e+00 0.000000e+00 0.000000e+00 
0.000000e+00 0.000000e+00 0.000000e+00 
0.000000e+00 0.000000e+00 0.000000e+00 
0.000000e+00 0.000000e+00 0.000000e+00 
0.000000e+00 0.000000e+00 0.000000e+00 
0.000000e+00 0.000000e+00 0.000000e+00 
0.000000e+00 0.000000e+00 0.000000e+00 
0.000000e+00 0.000000e+00 0.000000e+00 
0.000000e+00 0.000000e+00 0.000000e+00 
0.000000e+00 0.000000e+00 0.000000e+00 
0.000000e+00 0.000000e+00 0.000000e+00 
0.000000e+00 0.000000e+00 0.000000e+00 
0.000000e+00 0.000000e+00 0.000000e+00 
0.000000e+00 0.000000e+00 0.000000e+00 
0.000000e+00 0.000000e+00 0.000000e+00 
0.000000e+00 0.000000e+00 0.000000e+00 
0.000000e+00 0.000000e+00 0.000000e+00 
0.000000e+00 0.000000e+00 0.000000e+00 
0.000000e+00 0.000000e+00 0.000000e+00 
0.000000e+00 0.000000e+00 0.000000e+00 
0.000000e+00 0.000000e+00 0.000000e+00 
0.000000e+00 0.000000e+00 0.000000e+00 
0.000000e+00 0.000000e+00 0.000000e+00 
0.000000e+00 0.000000e+00 0.000000e+00 
0.000000e+00 0.000000e+00 0.000000e+00 
0.000000e+00 0.000000e+00 0.000000e+00 
0.000000e+00 0.000000e+00 0.000000e+00 
0.000000e+00 0.000000e+00 0.000000e+00 
0.000000e+00 0.000000e+00 0.000000e+00 
0.000000e+00 0.000000e+00 0.000000e+00 
0.000000e+00 0.000000e+00 0.000000e+00 
0.000000e+00 0.000000e+00 0.000000e+00 
0.000000e+00 0.000000e+00 0.000000e+00 
0.000000e+00 0.000000e+00 0.000000e+00 
0.000000e+00 0.000000e+00 0.000000e+00 
0.000000e+00 0.000000e+00 0.000000e+00 
0.000000e+00 0.000000e+00 0.000000e+00 
0.000000e+00 0.000000e+00 0.000000e+00 
0.000000e+00 0.000000e+00 0.000000e+00 
0.000000e+00 0.000000e+00 0.000000e+00 
0.000000e+00 0.000000e+00 0.000000e+00 
0.000000e+00 0.000000e+00 0.000000e+00 
0.000000e+00 0.000000e+00 0.000000e+00 
0.000000e+00 0.000000e+00 0.000000e+00 
0.000000e+00 0.000000e+00 0.000000e+00 
0.000000e+00 0.000000e+00 0.000000e+00 
0.000000e+00 0.000000e+00 0.000000e+00 
0.000000e+00 0.000000e+00 0.000000e+00 
0.000000e+00 0.000000e+00 0.000000e+00 
0.000000e+00 0.000000e+00 0.000000e+00 
0.000000e+00 0.000000e+00 0.000000e+00 
0.000000e+00 0.000000e+00 0.000000e+00 
0.000000e+00 0.000000e+00 0.000000e+00 
0.000000e+00 0.000000e+00 0.000000e+00 
0.000000e+00 0.000000e+00 0.000000e+00 
0.000000e+00 0.000000e+00 0.000000e+00 
0.000000e+00 0.000000e+00 0.000000e+00 
0.000000e+00 0.000000e+00 0.000000e+00 
0.000000e+00 0.000000e+00 0.000000e+00 
0.000000e+00 0.000000e+00 0.000000e+00 
0.000000e+00 0.000000e+00 0.000000e+00 
0.000000e+00 0.000000e+00 0.000000e+00 
0.000000e+00 0.000000e+00 0.000000e+00 
0.000000e+00 0.000000e+00 0.000000e+00 
0.000000e+00 0.000000e+00 0.000000e+00 
0.000000e+00 0.000000e+00 0.000000e+00 
0.000000e+00 0.000000e+00 0.000000e+00 
0.000000e+00 0.000000e+00 0.000000e+00 
0.000000e+00 0.000000e+00 0.000000e+00 
0.000000e+00 0.000000e+00 0.000000e+00 
0.000000e+00 0.000000e+00 0.000000e+00 
0.000000e+00 0.000000e+00 0.000000e+00 
0.000000e+00 0.000000e+00 0.000000e+00 
0.000000e+00 0.000000e+00 0.000000e+00 
0.000000e+00 0.000000e+00 0.000000e+00 
0.000000e+00 0.000000e+00 0.000000e+00 
0.000000e+00 0.000000e+00 0.000000e+00 
0.000000e+00 0.000000e+00 0.000000e+00 
0.000000e+00 0.000000e+00 0.000000e+00 
0.000000e+00 0.000000e+00 0.000000e+00 
0.000000e+00 0.000000e+00 0.000000e+00 
0.000000e+00 0.000000e+00 0.000000e+00 
0.000000e+00 0.000000e+00 0.000000e+00 
0.000000e+00 0.000000e+00 0.000000e+00 
0.000000e+00 0.000000e+00 0.000000e+00 
0.000000e+00 0.000000e+00 0.000000e+00 
0.000000e+00 0.000000e+00 0.000000e+00 
0.000000e+00 0.000000e+00 0.000000e+00 
0.000000e+00 0.000000e+00 0.000000e+00 
0.000000e+00 0.000000e+00 0.000000e+00 
0.000000e+00 0.000000e+00 0.000000e+00 
0.000000e+00 0.000000e+00 0.000000e+00 
0.000000e+00 0.000000e+00 0.000000e+00 
0.000000e+00 0.000000e+00 0.000000e+00 
0.000000e+00 0.000000e+00 0.000000e+00 
0.000000e+00 0.000000e+00 0.000000e+00 
0.000000e+00 0.000000e+00 0.000000e+00 
0.000000e+00 0.000000e+00 0.000000e+00 
0.000000e+00 0.000000e+00 0.000000e+00 
0.000000e+00 0.000000e+00 0.000000e+00 
0.000000e+00 0.000000e+00 0.000000e+00 
0.000000e+00 0.000000e+00 0.000000e+00 
0.000000e+00 0.000000e+00 0.000000e+00 
0.000000e+00 0.000000e+00 0.000000e+00 
0.000000e+00 0.000000e+00 0.000000e+00 
0.000000e+00 0.000000e+00 0.000000e+00 
0.000000e+00 0.000000e+00 0.000000e+00 
0.000000e+00 0.000000e+00 0.000000e+00 
0.000000e+00 0.000000e+00 0.000000e+00 
0.000000e+00 0.000000e+00 0.000000e+00 
0.000000e+00 0.000000e+00 0.000000e+00 
0.000000e+00 0.000000e+00 0.000000e+00 
0.000000e+00 0.000000e+00 0.000000e+00 
0.000000e+00 0.000000e+00 0.000000e+00 
0.000000e+00 0.000000e+00 0.000000e+00 
0.000000e+00 0.000000e+00 0.000000e+00 
0.000000e+00 0.000000e+00 0.000000e+00 
0.000000e+00 0.000000e+00 0.000000e+00 
0.000000e+00 0.000000e+00 0.000000e+00 
0.000000e+00 0.000000e+00 0.000000e+00 
0.000000e+00 0.000000e+00 0.000000e+00 
0.000000e+00 0.000000e+00 0.000000e+00 
0.000000e+00 0.000000e+00 0.000000e+00 
0.000000e+00 0.000000e+00 0.000000e+00 
0.000000e+00 0.000000e+00 0.000000e+00 
0.000000e+00 0.000000e+00 0.000000e+00 
0.000000e+00 0.000000e+00 0.000000e+00 
0.000000e+00 0.000000e+00 0.000000e+00 
0.000000e+00 0.000000e+00 0.000000e+00 
0.000000e+00 0.000000e+00 0.000000e+00 
0.000000e+00 0.000000e+00 0.000000e+00 
0.000000e+00 0.000000e+00 0.000000e+00 
0.000000e+00 0.000000e+00 0.000000e+00 
0.000000e+00 0.000000e+00 0.000000e+00 
0.000000e+00 0.000000e+00 0.000000e+00 
0.000000e+00 0.000000e+00 0.000000e+00 
0.000000e+00 0.000000e+00 0.000000e+00 
0.000000e+00 0.000000e+00 0.000000e+00 
0.000000e+00 0.000000e+00 0.000000e+00 
0.000000e+00 0.000000e+00 0.000000e+00 
0.000000e+00 0.000000e+00 0.000000e+00 
0.000000e+00 0.000000e+00 0.000000e+00 
0.000000e+00 0.000000e+00 0.000000e+00 
0.000000e+00 0.000000e+00 0.000000e+00 
0.000000e+00 0.000000e+00 0.000000e+00 
0.000000e+00 0.000000e+00 0.000000e+00 
0.000000e+00 0.000000e+00 0.000000e+00 
0.000000e+00 0.000000e+00 0.000000e+00 
0.000000e+00 0.000000e+00 0.000000e+00 
0.000000e+00 0.000000e+00 0.000000e+00 
0.000000e+00 0.000000e+00 0.000000e+00 
0.000000e+00 0.000000e+00 0.000000e+00 
0.000000e+00 0.000000e+00 0.000000e+00 
0.000000e+00 0.000000e+00 0.000000e+00 
0.000000e+00 0.000000e+00 0.000000e+00 
0.000000e+00 0.000000e+00 0.000000e+00 
0.000000e+00 0.000000e+00 0.000000e+00 
0.000000e+00 0.000000e+00 0.000000e+00 
0.000000e+00 0.000000e+00 0.000000e+00 
0.000000e+00 0.000000e+00 0.000000e+00 
0.000000e+00 0.000000e+00 0.000000e+00 
0.000000e+00 0.000000e+00 0.000000e+00 
0.000000e+00 0.000000e+00 0.000000e+00 
0.000000e+00 0.000000e+00 0.000000e+00 
0.000000e+00 0.000000e+00 0.000000e+00 
0.000000e+00 0.000000e+00 0.000000e+00 
0.000000e+00 0.000000e+00 0.000000e+00 
0.000000e+00 0.000000e+00 0.000000e+00 
0.000000e+00 0.000000e+00 0.000000e+00 
0.000000e+00 0.000000e+00 0.000000e+00 
0.000000e+00 0.000000e+00 0.000000e+00 
0.000000e+00 0.000000e+00 0.000000e+00 
0.000000e+00 0.000000e+00 0.000000e+00 
0.000000e+00 0.000000e+00 0.000000e+00 
0.000000e+00 0.000000e+00 0.000000e+00 
0.000000e+00 0.000000e+00 0.000000e+00 
0.000000e+00 0.000000e+00 0.000000e+00 
0.000000e+00 0.000000e+00 0.000000e+00 
0.000000e+00 0.000000e+00 0.000000e+00 
0.000000e+00 0.000000e+00 0.000000e+00 
0.000000e+00 0.000000e+00 0.000000e+00 
0.000000e+00 0.000000e+00 0.000000e+00 
0.000000e+00 0.000000e+00 0.000000e+00 
0.000000e+00 0.000000e+00 0.000000e+00 
0.000000e+00 0.000000e+00 0.000000e+00 
0.000000e+00 0.000000e+00 0.000000e+00 
0.000000e+00 0.000000e+00 0.000000e+00 
0.000000e+00 0.000000e+00 0.000000e+00 
0.000000e+00 0.000000e+00 0.000000e+00 
0.000000e+00 0.000000e+00 0.000000e+00 
0.000000e+00 0.000000e+00 0.000000e+00 
0.000000e+00 0.000000e+00 0.000000e+00 
0.000000e+00 0.000000e+00 0.000000e+00 
0.000000e+00 0.000000e+00 0.000000e+00 
0.000000e+00 0.000000e+00 0.000000e+00 
0.000000e+00 0.000000e+00 0.000000e+00 
0.000000e+00 0.000000e+00 0.000000e+00 
0.000000e+00 0.000000e+00 0.000000e+00 
0.000000e+00 0.000000e+00 0.000000e+00 
0.000000e+00 0.000000e+00 0.000000e+00 
0.000000e+00 0.000000e+00 0.000000e+00 
0.000000e+00 0.000000e+00 0.000000e+00 
0.000000e+00 0.000000e+00 0.000000e+00 
0.000000e+00 0.000000e+00 0.000000e+00 
0.000000e+00 0.000000e+00 0.000000e+00 
0.000000e+00 0.000000e+00 0.000000e+00 
0.000000e+00 0.000000e+00 0.000000e+00 
0.000000e+00 0.000000e+00 0.000000e+00 
0.000000e+00 0.000000e+00 0.000000e+00 
0.000000e+00 0.000000e+00 0.000000e+00 
0.000000e+00 0.000000e+00 0.000000e+00 
0.000000e+00 0.000000e+00 0.000000e+00 
0.000000e+00 0.000000e+00 0.000000e+00 
0.000000e+00 0.000000e+00 0.000000e+00 