# vtk DataFile Version 3.1
*description-name of input file* step:1 
ASCII
DATASET UNSTRUCTURED_GRID
POINTS 1605 FLOAT
-7.037090e-09 -5.738281e-09 1.280833e-10
-7.656778e-09 -4.555099e-09 -6.384136e-10
-6.255094e-09 -5.164045e-09 -7.236777e-10
-7.574874e-09 -4.417965e-09 1.840454e-09
-5.385962e-09 -5.995915e-09 -1.556360e-10
1.207437e-08 7.052326e-09 -1.074521e-08
1.360097e-08 7.251467e-09 -1.078856e-08
1.267746e-08 5.837286e-09 -1.175009e-08
-5.977612e-09 -5.916491e-09 1.042878e-09
-6.223718e-09 -2.948859e-09 7.658601e-10
-4.407046e-09 -4.634939e-09 -1.271484e-09
-6.363668e-09 -2.957839e-09 -6.684190e-10
-5.615644e-09 -5.161768e-09 2.440409e-09
-6.049514e-09 -3.602289e-09 1.812312e-09
-5.133099e-09 -3.823752e-09 -1.566400e-09
-7.224623e-09 -3.965201e-09 3.216447e-09
-3.431133e-09 -5.496780e-09 2.982290e-10
-6.837843e-09 -1.454963e-09 4.798144e-11
-5.480908e-09 -1.571104e-09 -1.162971e-09
-3.959431e-09 -4.054710e-09 -3.605742e-09
-5.315808e-09 -2.828332e-09 -2.691005e-09
-4.129946e-09 -2.265617e-09 -3.859999e-09
-6.231687e-09 -2.581627e-09 2.505281e-09
-6.310930e-09 6.243777e-12 -2.681195e-09
-6.568490e-09 -2.352919e-11 -9.705860e-10
-3.807501e-09 -4.683077e-09 1.802921e-09
-7.096709e-09 -1.515019e-09 1.479140e-09
-5.886267e-09 -3.619587e-09 4.294662e-09
-4.177133e-09 -1.944849e-09 -5.059422e-10
-7.503602e-09 -1.853423e-09 3.431612e-09
-2.462608e-09 -4.413400e-09 -2.428092e-09
-2.794748e-09 -2.671233e-09 -3.682667e-09
-2.066951e-09 -3.828250e-09 -3.548788e-09
-3.510505e-09 -3.471870e-09 -5.647874e-10
-5.999673e-09 -2.392122e-09 4.301634e-09
-4.594738e-09 -7.449897e-10 -2.591795e-09
-6.115529e-09 -4.338658e-10 1.953108e-09
-4.906584e-09 -3.657187e-10 2.285038e-10
-3.115357e-09 -1.844447e-09 -2.119513e-09
-4.112203e-09 -3.986987e-09 3.785613e-09
-5.022114e-09 4.349455e-10 -8.868903e-10
-3.879503e-09 9.004336e-10 -4.968649e-09
-3.828190e-09 4.429077e-10 -2.850858e-09
-4.885655e-09 1.229298e-09 -3.351522e-09
-4.075917e-09 -2.672576e-09 2.044293e-09
-1.640248e-09 -3.204869e-09 -6.612597e-10
-4.569958e-09 2.564201e-09 -3.931402e-09
-2.953870e-09 -1.449906e-09 -3.685476e-09
-3.182007e-09 -5.791206e-11 -3.067300e-09
-1.690333e-09 -1.498452e-09 -3.415288e-09
-3.542113e-09 6.049771e-10 -8.875546e-10
-2.949021e-09 -1.958551e-09 3.978280e-11
-3.088107e-09 3.789834e-10 -4.505070e-09
-1.782063e-09 -2.268752e-09 -1.913048e-09
-4.033612e-09 -3.886027e-10 8.116615e-09
-2.131886e-09 -1.738949e-09 7.498065e-09
-1.782200e-09 3.008951e-10 7.523264e-09
-1.716064e-09 1.047475e-09 -4.046921e-09
-5.633646e-09 -2.961866e-09 6.110426e-09
-4.153961e-09 2.462117e-09 -2.474628e-09
-3.474862e-09 -2.813809e-09 3.604739e-09
-4.517555e-09 -6.048615e-10 2.483921e-09
-3.928177e-09 -1.601665e-09 1.136510e-09
-5.353066e-09 2.381597e-09 -4.197901e-10
-4.620837e-09 7.423630e-10 1.239093e-09
-6.412536e-09 1.707324e-09 1.644182e-09
-4.550829e-09 -4.355555e-09 5.783729e-09
-4.705352e-09 -3.626971e-09 6.825567e-09
-6.061248e-09 -1.743106e-09 6.611205e-09
-1.903553e-09 1.813886e-09 2.067656e-09
-5.219436e-12 2.423679e-09 3.736856e-09
-7.937133e-10 1.879238e-09 1.041722e-09
-4.305148e-09 9.327884e-10 -1.312890e-09
-2.989095e-09 -4.466735e-09 5.480765e-09
1.020375e-09 2.972806e-10 3.811642e-09
7.858976e-10 1.113074e-09 4.234669e-09
3.048936e-11 7.539420e-10 5.425122e-09
-5.463371e-09 3.300324e-09 1.035802e-09
-4.724177e-09 -1.570331e-09 5.510683e-09
-1.150116e-09 4.250687e-11 -1.518393e-09
-4.498655e-09 -2.266127e-09 4.484169e-09
-3.391859e-09 5.349210e-11 4.921076e-10
-2.328030e-09 -4.323825e-10 5.243958e-12
-5.791130e-09 2.584638e-09 3.918772e-09
-2.216901e-09 -5.090955e-09 3.734699e-09
-3.007542e-09 2.806772e-09 -3.399275e-09
-2.144865e-09 -3.730762e-09 2.632931e-09
-5.818872e-09 -4.996151e-10 5.573241e-09
-2.679602e-09 1.880293e-09 -2.405678e-09
-4.327324e-09 -1.130606e-10 4.808972e-09
-2.793398e-09 -2.926654e-09 4.795056e-09
-5.665394e-09 -7.285007e-10 4.053826e-09
-3.271587e-09 -8.829669e-10 4.208624e-09
-7.931448e-10 -1.393931e-09 5.360888e-12
-4.518397e-09 3.441739e-09 2.413113e-09
-3.146348e-09 2.915530e-09 -8.976276e-10
-2.631026e-11 -1.645467e-09 -3.458039e-09
3.417645e-10 -2.817727e-09 -2.584979e-09
-4.089993e-09 -2.303286e-09 7.998981e-09
-5.465237e-09 -1.364252e-09 8.012572e-09
-5.273798e-09 2.948860e-10 7.762120e-09
9.625218e-10 2.106500e-09 3.068187e-09
-3.195256e-09 1.511728e-09 6.655070e-10
-3.462048e-09 2.795191e-09 5.785923e-10
-6.375320e-09 1.249209e-09 5.047891e-09
-4.635365e-09 5.414039e-11 3.686347e-09
-3.654952e-09 -2.508617e-09 6.284580e-09
4.747140e-11 -1.921632e-10 -3.204997e-09
-1.426772e-09 -2.720850e-09 3.497335e-09
-4.925719e-09 1.365054e-09 6.687628e-09
-3.646186e-09 7.177863e-10 3.381891e-09
-4.334340e-09 2.125625e-09 5.471578e-09
-4.288351e-09 1.743520e-09 3.047275e-09
-3.857898e-10 -4.019739e-09 2.746751e-09
8.177079e-10 -3.895835e-09 4.253891e-09
-4.019717e-09 2.372112e-09 1.827930e-09
1.359341e-10 -2.042344e-09 -8.400224e-10
-4.191497e-09 2.947807e-09 4.005729e-09
1.386660e-09 -1.068990e-09 -2.731348e-09
-6.847785e-10 -4.089348e-09 6.274848e-09
-7.208561e-10 -5.576487e-10 1.044468e-09
-2.122496e-09 -3.369413e-09 6.708048e-09
-1.934604e-09 -2.181777e-09 5.378338e-09
-1.599881e-09 -2.786982e-10 2.822983e-09
-1.469873e-09 -1.697096e-09 4.347274e-09
-2.471656e-09 1.459065e-09 3.706112e-09
1.384358e-09 -1.224350e-09 -1.229760e-09
5.722641e-10 8.433697e-10 -1.268141e-09
1.358745e-09 -4.502084e-10 5.889189e-09
-3.226578e-09 1.006700e-09 5.929019e-09
7.889586e-10 8.495065e-10 -2.979114e-09
7.371326e-10 -4.475272e-09 2.902228e-09
-9.477887e-10 -6.253559e-10 4.099821e-09
8.862744e-10 -1.116638e-09 -1.144068e-10
4.616865e-10 -3.885977e-09 5.386048e-09
-3.226223e-09 8.576158e-10 7.282747e-09
-2.726768e-09 2.026304e-09 5.324205e-09
-1.323575e-09 -1.737832e-09 6.546135e-09
1.622069e-09 -4.740454e-09 3.730239e-09
2.114127e-09 -3.646413e-09 2.449482e-09
-2.511779e-10 -1.494188e-09 2.694147e-09
-3.464159e-10 -2.710966e-09 6.968406e-09
1.480443e-09 -1.640706e-09 1.813973e-09
2.175690e-09 -1.258188e-10 -2.145799e-09
-9.750187e-10 1.576152e-09 3.594482e-09
-6.250829e-10 -1.267227e-09 7.864748e-09
1.607809e-09 2.944516e-10 -1.330272e-10
2.251970e-09 -3.569586e-09 4.748250e-09
2.989487e-09 -4.259840e-09 3.709947e-09
1.935457e-09 1.556365e-09 -1.419526e-09
4.826725e-10 -2.170812e-09 6.190022e-09
-1.814906e-09 7.515229e-10 5.211026e-09
2.920916e-09 -4.991644e-10 8.153580e-10
2.719840e-09 3.850781e-10 -3.701649e-09
1.533303e-09 -2.604037e-09 4.970050e-09
3.556590e-09 -2.995653e-09 2.639766e-09
3.327634e-09 7.633412e-10 -2.129922e-09
3.002256e-09 2.579479e-09 -2.781775e-09
2.997381e-09 2.034927e-09 -4.177032e-09
3.848081e-09 9.178431e-10 -3.857783e-09
4.396463e-09 1.354699e-09 -5.079523e-09
1.229618e-09 -1.406980e-09 4.174625e-09
6.740757e-10 -7.976130e-10 7.469606e-09
2.785647e-09 -5.590506e-10 2.116043e-09
1.259487e-09 1.353176e-09 7.238697e-10
2.199342e-09 1.623397e-09 -3.006157e-10
4.639405e-09 1.336981e-09 -3.344657e-09
3.625107e-10 1.121089e-09 7.395998e-09
1.398304e-09 9.512592e-10 2.135882e-09
2.990641e-09 -2.241303e-09 3.655575e-09
2.236226e-09 -2.379673e-10 3.382258e-09
3.572374e-09 1.074511e-10 1.810116e-09
4.498347e-09 2.410238e-09 -3.555441e-09
3.224114e-09 9.145800e-10 -7.981102e-10
3.331091e-09 2.005124e-09 -1.728532e-09
4.836256e-09 2.380025e-09 -4.927555e-09
3.220042e-09 9.251968e-10 6.512694e-10
5.576085e-09 1.655990e-09 -5.680072e-09
5.410221e-09 1.453851e-09 -4.495220e-09
3.506972e-09 -3.630382e-11 -1.406538e-10
3.161168e-09 9.694146e-10 2.553884e-09
6.643150e-09 1.506916e-09 -5.551673e-09
5.596633e-09 2.922411e-09 -4.160283e-09
7.141839e-09 2.994192e-09 -6.479182e-09
7.022022e-09 2.488852e-09 -4.643973e-09
7.532984e-09 2.175415e-09 -6.328800e-09
6.346760e-09 3.603364e-09 -5.016072e-09
7.574915e-09 3.848630e-09 -5.794784e-09
8.701585e-09 2.865428e-09 -5.877754e-09
8.501395e-09 3.004060e-09 -6.964466e-09
8.468904e-09 4.112807e-09 -7.073748e-09
9.396214e-09 3.276227e-09 -6.861091e-09
1.046037e-08 4.192227e-09 -8.043826e-09
1.021592e-08 5.007269e-09 -8.203001e-09
9.564143e-09 3.840369e-09 -6.048417e-09
1.089472e-08 3.998140e-09 -6.941341e-09
1.008809e-08 4.651927e-09 -6.684372e-09
1.125080e-08 5.053158e-09 -8.832586e-09
1.131351e-08 6.201104e-09 -7.672460e-09
1.096353e-08 5.274411e-09 -6.741421e-09
1.218976e-08 4.725305e-09 -8.304542e-09
1.120409e-08 6.714815e-09 -9.841454e-09
1.169816e-08 5.826484e-09 -1.082982e-08
1.123352e-08 5.978576e-09 -8.859109e-09
1.206267e-08 4.961971e-09 -9.240865e-09
1.182988e-08 5.664555e-09 -7.314054e-09
1.269006e-08 5.526409e-09 -8.013066e-09
1.346961e-08 5.040672e-09 -9.160830e-09
1.366368e-08 5.379025e-09 -1.048997e-08
1.222426e-08 7.193436e-09 -8.719822e-09
1.421732e-08 6.460628e-09 -9.914284e-09
1.383243e-08 6.238325e-09 -8.606031e-09
1.358004e-08 7.548003e-09 -9.051733e-09
2.067399e-09 1.589881e-09 -8.600707e-10
-4.397672e-09 -2.965128e-09 7.412274e-09
7.337411e-09 2.584803e-09 -6.403991e-09
7.358377e-09 3.421411e-09 -6.136983e-09
1.237592e-08 6.444806e-09 -1.124765e-08
2.239764e-09 1.139186e-09 6.875696e-10
-4.282114e-09 5.199613e-10 -8.872224e-10
8.138250e-09 3.357029e-09 -5.836269e-09
5.182932e-10 1.617378e-10 7.432802e-09
-2.889260e-10 4.429383e-10 -1.393267e-09
-3.148682e-09 -9.511797e-10 -2.593407e-09
7.821617e-09 2.999126e-09 -6.721824e-09
-4.519808e-09 1.845707e-09 -2.913075e-09
-5.516686e-09 1.224843e-09 1.441637e-09
-9.456055e-11 1.344613e-09 3.914576e-09
1.294181e-09 -9.285942e-10 5.031907e-09
1.033815e-08 4.599748e-09 -8.123413e-09
-4.546265e-09 -3.939231e-09 -2.586071e-09
-3.740883e-09 2.583651e-09 1.203261e-09
-3.134130e-09 -2.870231e-09 4.199897e-09
-5.937953e-09 2.503824e-09 1.339992e-09
1.092913e-08 4.636275e-09 -6.841381e-09
1.965000e-10 9.375154e-10 6.410560e-09
3.098678e-10 3.256032e-10 -2.236569e-09
3.903391e-10 1.768376e-09 3.985763e-09
-4.611416e-09 -1.918229e-09 4.997426e-09
-1.680688e-09 -2.451313e-09 4.437836e-09
-3.990223e-09 3.118465e-09 1.495853e-09
-2.242541e-09 -2.084843e-09 -3.548977e-09
1.313922e-08 6.544376e-09 -1.126933e-08
[...]
POINT_DATA 1605
VECTORS vector_force float
2.033641e+02 5.078493e+02 -1.929072e+02 
5.435358e+01 1.961153e+02 -8.264550e+01 
-6.170907e+02 -8.284774e+02 1.610108e+02 
2.347883e+02 7.896568e+02 3.941664e+02 
2.358990e+02 5.045291e+02 -1.348040e+02 
2.694332e+02 1.281842e+02 2.070766e+02 
-1.200329e+03 -8.678104e+02 -3.374725e+02 
6.582806e+02 1.440428e+02 2.288646e+02 
8.099526e+01 3.770011e+02 -4.034126e+02 
-1.948956e+01 5.501969e+02 1.467806e+01 
2.976723e+02 -4.793943e+01 -3.596927e+02 
6.254189e+02 -7.478415e+02 9.674010e+01 
-7.321241e+02 -1.106444e+02 7.497149e+02 
-3.191147e+02 -1.827788e+02 -1.401008e+02 
1.224918e+02 -4.292340e+02 8.872029e+01 
-1.899479e+02 1.961214e+02 -3.365361e+02 
-2.809629e+02 -9.190259e+01 -7.583617e+02 
-7.019430e+02 -9.802741e+02 -2.933129e+02 
5.414955e+02 -1.644059e+02 8.149835e+01 
-3.090727e+01 3.248687e+02 8.846001e+02 
2.414216e+02 1.402649e+03 2.081031e+02 
-7.523951e+02 4.227867e+00 -3.511939e+02 
-2.462367e+02 4.934284e+02 -3.228543e+00 
1.091266e+02 -5.596643e+02 1.639018e+03 
8.346779e+01 2.431293e+02 4.999358e+02 
-2.779831e+02 2.283991e+02 -2.490950e+02 
-3.857726e+01 -3.057882e+02 -5.574838e+02 
-8.544624e+02 4.975621e+02 -7.508276e+01 
-3.105322e+01 5.107240e+01 2.744003e+02 
-2.579414e+02 -8.615384e+01 9.198640e+02 
-5.084429e+02 -9.407808e+01 -5.204582e+02 
1.975383e+02 5.257026e+01 2.919908e+02 
-2.627419e+02 -8.290708e+02 -2.500442e+02 
-5.080963e+02 6.902876e+01 2.399516e+02 
1.248974e+02 6.340732e+02 1.321077e+02 
-1.011485e+03 -2.830829e+02 1.902025e+01 
-6.205818e+02 1.395348e+02 -1.605769e+02 
-5.161014e+02 2.342729e+02 -4.111013e+02 
-3.319320e+00 1.512580e+02 7.772637e+02 
-3.080458e+02 -1.724990e+02 4.100550e+02 
-2.789647e+02 -4.094904e+02 -5.605032e+02 
-3.181242e+02 -1.160859e+03 -2.363209e+02 
2.334290e+02 3.866926e+02 5.826692e+02 
-1.753266e+03 -1.164238e+03 4.621928e+01 
3.606085e+02 1.285374e+02 3.279375e+02 
-9.524243e+02 -1.708958e+02 1.182706e+03 
-2.736422e+02 -8.340421e+02 -1.301744e+03 
-5.451242e+01 4.052766e+02 1.081025e+03 
-8.984491e+02 8.468163e+01 1.853011e+01 
7.907990e+01 3.206516e+02 8.498756e+02 
-4.890534e+02 -1.063095e+02 -5.693588e+01 
3.403245e+02 1.240887e+03 3.969033e+02 
-7.783766e+02 -2.059128e+02 -7.844097e+01 
5.360746e+02 3.307460e+02 1.313754e+03 
3.909751e+02 -5.438887e+02 5.599817e+02 
2.537312e+02 3.015043e+02 2.851952e+02 
-1.577805e+02 -2.141010e+02 3.648941e+02 
-7.139555e+02 -2.467257e+02 -3.535647e+02 
-3.323479e+02 4.097213e+02 -2.285746e+02 
1.016331e+03 1.376451e+02 -8.044127e+02 
-2.538348e+02 2.152955e+02 -2.974597e+02 
-8.731948e+02 4.400140e+02 -1.593708e+02 
6.478151e+01 3.395834e+02 7.095593e+02 
-3.743307e+02 9.057445e+02 -9.056273e+01 
-5.513249e+02 -2.176356e+02 7.077941e+02 
-1.112928e+02 -3.315093e+02 6.465790e+02 
-5.506473e+02 6.408289e+02 -4.983517e+02 
-2.928486e+02 -1.106990e+02 -6.046018e+02 
-3.825471e+02 3.958123e+02 7.908617e+01 
2.670994e+02 -2.752950e+02 -2.859399e+02 
-5.895687e+02 -1.135875e+03 2.141247e+02 
3.611588e+02 -2.401219e+02 -1.993530e+02 
4.575444e+02 1.448822e+02 1.094586e+02 
7.228502e+02 -5.373053e+02 -2.547808e+02 
3.698889e+02 -2.756016e+02 -4.072858e+02 
5.821523e+02 -9.463624e+02 -5.044621e+02 
2.512105e+02 -4.595274e+02 -3.993065e+02 
-7.846320e+02 1.188482e+03 9.884907e+02 
6.145451e+02 -1.366949e+02 -1.029256e+02 
1.107440e+02 1.766250e+02 2.592855e+02 
6.680684e+01 -4.163378e+02 -5.431720e+01 
-1.153672e+03 -4.547018e+02 -6.069911e+01 
2.293889e+02 5.577169e+02 -2.470707e+02 
-2.088233e+01 1.500294e+02 5.560458e+01 
-3.077827e+02 -2.392696e+02 -6.614227e+02 
-8.218560e+02 2.730743e+02 -1.399105e+03 
4.582837e+01 2.200013e+02 5.717483e+02 
3.852087e+02 -3.852111e+02 5.426316e+02 
2.221905e+02 1.025237e+03 -1.289395e+03 
4.998020e+02 -4.097205e+02 7.584137e+01 
-7.747873e+01 -3.890389e+02 6.043787e+02 
-1.972085e+02 8.613555e+01 4.313039e+02 
1.835660e+02 -1.404540e+02 -2.491874e+02 
-1.221518e+02 3.128683e+02 3.846624e+02 
-4.773243e+02 4.299873e+02 -4.303723e+02 
-2.924126e+02 1.989678e+02 -7.444125e+02 
-3.985412e+02 4.491784e+02 8.247363e+02 
-1.011470e+02 6.331628e+02 5.107745e+02 
7.630653e+02 -1.032196e+03 -2.332076e+02 
4.087104e+02 8.712681e+02 7.858551e+02 
1.092569e+03 -2.350348e+02 -2.795030e+02 
6.745329e+02 -3.438764e+02 -8.628824e+02 
-9.934920e+02 3.788235e+02 -8.608602e+02 
-7.225899e+02 4.351560e+02 4.775822e+02 
1.703824e+02 8.718646e+01 6.975923e+02 
1.757405e+02 1.303767e+02 8.531719e+02 
-1.228139e+02 1.746229e+02 -2.132181e+02 
-1.404248e+02 -3.304835e+02 -1.211545e+02 
-2.248291e+02 5.112529e+02 -1.078249e+02 
6.034379e+01 -2.482076e+02 4.413922e+02 
-8.642682e+01 1.748861e+02 4.176011e+02 
2.584013e+02 7.287863e+02 1.763439e+02 
-8.028303e+02 4.818167e+01 4.559353e+02 
-5.466299e+02 2.194849e+00 6.388309e+01 
-3.686595e+01 2.627363e+02 1.479213e+02 
-4.393780e+02 6.072904e+02 8.214463e+02 
-6.242970e+02 -3.840122e+01 2.764144e+02 
3.425547e+02 1.516949e+03 -1.368574e+03 
7.183571e+02 -7.030997e+02 1.593719e+03 
1.044355e+02 -1.584802e+02 -1.863779e+02 
-2.132253e+02 4.912025e+02 5.853976e+02 
2.284286e+01 -4.249208e+02 -4.646064e+01 
2.720136e+02 -8.133869e+01 4.626089e+02 
1.114281e+03 3.263946e+02 -1.031497e+02 
9.499937e+01 -1.634117e+02 1.609380e+01 
9.067680e+02 -5.972943e+02 1.096613e+02 
1.382296e+02 -4.914386e+01 9.425094e+02 
1.688194e+02 2.893965e+00 -3.561570e+01 
5.268724e+02 -1.104478e+03 -4.525560e+02 
7.452516e+01 -3.137412e+02 1.304951e+02 
9.456171e+01 -1.217953e+02 -2.302038e+01 
-1.354362e+03 1.689824e+02 9.515519e+02 
-2.465752e+02 -2.393287e+02 -4.892313e+02 
3.798188e+02 -6.577759e+02 2.378844e+02 
1.510119e+02 -3.414039e+02 2.360079e+01 
-1.899596e+02 -2.421131e+02 -9.671019e+01 
-6.845128e+02 8.662929e+01 1.259010e+03 
2.747935e+02 4.131361e+02 -4.577741e+02 
-5.606683e+02 2.509299e+02 6.527072e+02 
-1.549514e+02 -2.751168e+02 3.968540e+02 
3.846557e+02 3.173872e+02 4.232697e+02 
9.908603e+02 9.980846e+01 2.693839e+02 
7.566570e+02 3.655812e+02 -3.411047e+01 
3.129564e+02 -5.255202e+01 -4.587590e+02 
1.404775e+02 -8.285518e+02 7.566652e+02 
1.294020e+03 -8.162854e+02 2.836085e+02 
3.133137e+02 -5.587323e+02 -1.741960e+02 
2.937289e+01 -3.623077e+02 -2.462721e+02 
-1.018859e+03 -8.777988e+02 2.033564e+02 
4.540624e+02 3.457664e+01 1.742137e+02 
2.961970e+01 -6.489470e+01 5.109627e+02 
3.918318e+02 -3.814626e+02 -3.889309e+02 
-4.604507e+01 4.996313e+02 4.643480e+02 
4.420542e+02 -3.950824e+02 -5.644454e+02 
-3.472876e+02 -5.741497e+01 -2.161852e+02 
4.613890e+02 -4.491425e+02 -1.147253e+02 
3.817070e+02 -3.582626e+00 -1.732421e+02 
5.370580e+02 4.038420e+02 -7.862355e+02 
-9.153411e+01 6.359673e+02 -7.830007e+02 
-1.994545e+02 3.640617e+02 -1.079569e+02 
-4.826846e+02 1.514991e+03 4.391710e+02 
4.941737e+02 9.815482e+01 9.115122e+01 
3.399896e+02 -1.264861e+03 -4.107744e+02 
1.471421e+02 3.810612e+02 -4.771976e+02 
3.310788e+02 -3.632046e+01 -4.845656e+02 
5.865727e+02 -3.343372e+02 9.691349e+01 
-5.916636e+02 7.089538e+02 3.149167e+02 
9.434245e+02 3.652853e+02 -4.815291e+02 
6.327690e+02 -3.479007e+02 -1.032983e+02 
8.466011e+02 6.590684e+01 3.862114e+02 
-4.505114e+01 -1.505350e+02 -6.455782e+02 
-6.302173e+02 -8.587806e+02 2.400915e+02 
-1.578949e+03 6.236991e+02 1.263363e+03 
1.235749e+01 3.793680e+01 3.041186e+02 
-1.515620e+02 6.288843e+02 3.172915e+02 
1.047730e+02 1.128841e+03 9.769202e+01 
-6.634747e+02 -3.843049e+02 9.054668e+02 
-1.419079e+02 2.855164e+02 4.970304e+02 
-4.523121e+02 1.339125e+03 -4.982287e+01 
9.295510e+02 9.656062e+02 1.363102e+03 
-1.508236e+02 -1.162375e+03 7.168396e+02 
1.195246e+02 -8.414336e+02 7.500871e+02 
6.108526e+02 5.173691e+02 8.917945e+02 
1.294666e+02 -4.427524e+02 -5.187999e+02 
2.773671e+02 9.392771e+02 -1.281971e+02 
1.274320e+02 -2.893915e+02 -5.738943e+02 
4.573572e+02 -1.389042e+02 -6.339197e+01 
-1.822551e+02 -5.038966e+02 -1.077380e+03 
5.595855e+02 -1.896976e+02 -4.995439e+02 
6.143463e+02 -1.070222e+02 -2.300946e+02 
-1.607508e+02 3.946233e+02 -6.982382e+02 
-7.285692e+01 8.511205e+02 1.623407e+01 
1.102270e+03 5.132743e+02 8.072669e+02 
6.265335e+02 -8.598887e+02 -1.221336e+03 
-8.581016e+02 8.418580e+02 -9.634078e+01 
1.069210e+03 -3.082411e+02 9.865718e+02 
2.127427e+02 6.174769e+02 2.185779e+02 
-8.216881e+02 -6.326730e+02 9.042829e+01 
-5.457757e+02 -6.769732e+02 -4.793245e+02 
8.383923e+01 2.573483e+02 -4.949662e+02 
-1.466878e+01 -8.338427e+02 -2.318014e+02 
-2.583820e+02 -1.230513e+02 5.829068e+02 
-2.134552e+00 4.438865e+02 1.463321e+02 
-7.161437e+02 -1.046747e+03 -3.825905e+02 
-9.005964e+02 -7.326831e+00 -4.582813e+02 
-4.653701e+02 -4.626544e+01 -2.346857e+02 
6.285946e+02 -7.134480e+02 -7.383308e+02 
-1.006529e+03 -2.372329e+02 -5.546863e+02 
-9.977608e+01 -1.001958e+03 -7.684701e+02 
-2.615877e+02 -8.706907e+02 6.558739e+02 
-1.045417e+03 4.583141e+02 -7.013443e+01 
-5.247038e+02 -4.718880e+02 -4.748165e+02 
-3.639255e+02 9.592635e+01 -4.518292e+01 
0.000000e+00 0.000000e+00 0.000000e+00 
0.000000e+00 0.000000e+00 0.000000e+00 
0.000000e+00 0.000000e+00 0.000000e+00 
0.000000e+00 0.000000e+00 0.000000e+00 
0.000000e+00 0.000000e+00 0.000000e+00 
0.000000e+00 0.000000e+00 0.000000e+00 
0.000000e+00 0.000000e+00 0.000000e+00 
0.000000e+00 0.000000e+00 0.000000e+00 
0.000000e+00 0.000000e+00 0.000000e+00 
0.000000e+00 0.000000e+00 0.000000e+00 
0.000000e+00 0.000000e+00 0.000000e+00 
0.000000e+00 0.000000e+00 0.000000e+00 
0.000000e+00 0.000000e+00 0.000000e+00 
0.000000e+00 0.000000e+00 0.000000e+00 
0.000000e+00 0.000000e+00 0.000000e+00 
0.000000e+00 0.000000e+00 0.000000e+00 
0.000000e+00 0.000000e+00 0.000000e+00 
0.000000e+00 0.000000e+00 0.000000e+00 
0.000000e+00 0.000000e+00 0.000000e+00 
0.000000e+00 0.000000e+00 0.000000e+00 
0.000000e+00 0.000000e+00 0.000000e+00 
0.000000e+00 0.000000e+00 0.000000e+00 
0.000000e+00 0.000000e+00 0.000000e+00 
0.000000e+00 0.000000e+00 0.000000e+00 
0.000000e+00 0.000000e+00 0.000000e+00 
0.000000e+00 0.000000e+00 0.000000e+00 
0.000000e+00 0.000000e+00 0.000000e+00 
0.000000e+00 0.000000e+00 0.000000e+00 
0.000000e+00 0.000000e+00 0.000000e+00 
0.000000e+00 0.000000e+00 0.000000e+00 
0.000000e+00 0.000000e+00 0.000000e+00 
0.000000e+00 0.000000e+00 0.000000e+00 
0.000000e+00 0.000000e+00 0.000000e+00 
0.000000e+00 0.000000e+00 0.000000e+00 
0.000000e+00 0.000000e+00 0.000000e+00 
0.000000e+00 0.000000e+00 0.000000e+00 
0.000000e+00 0.000000e+00 0.000000e+00 
0.000000e+00 0.000000e+00 0.000000e+00 
0.000000e+00 0.000000e+00 0.000000e+00 
0.000000e+00 0.000000e+00 0.000000e+00 
0.000000e+00 0.000000e+00 0.000000e+00 
0.000000e+00 0.000000e+00 0.000000e+00 
0.000000e+00 0.000000e+00 0.000000e+00 
0.000000e+00 0.000000e+00 0.000000e+00 
0.000000e+00 0.000000e+00 0.000000e+00 
0.000000e+00 0.000000e+00 0.000000e+00 
0.000000e+00 0.000000e+00 0.000000e+00 
0.000000e+00 0.000000e+00 0.000000e+00 
0.000000e+00 0.000000e+00 0.000000e+00 
0.000000e+00 0.000000e+00 0.000000e+00 
0.000000e+00 0.000000e+00 0.000000e+00 
0.000000e+00 0.000000e+00 0.000000e+00 
0.000000e+00 0.000000e+00 0.000000e+00 
0.000000e+00 0.000000e+00 0.000000e+00 
0.000000e+00 0.000000e+00 0.000000e+00 
0.000000e+00 0.000000e+00 0.000000e+00 
0.000000e+00 0.000000e+00 0.000000e+00 
0.000000e+00 0.000000e+00 0.000000e+00 
0.000000e+00 0.000000e+00 0.000000e+00 
0.000000e+00 0.000000e+00 0.000000e+00 
0.000000e+00 0.000000e+00 0.000000e+00 
0.000000e+00 0.000000e+00 0.000000e+00 
0.000000e+00 0.000000e+00 0.000000e+00 
0.000000e+00 0.000000e+00 0.000000e+00 
0.000000e+00 0.000000e+00 0.000000e+00 
0.000000e+00 0.000000e+00 0.000000e+00 
0.000000e+00 0.000000e+00 0.000000e+00 
0.000000e+00 0.000000e+00 0.000000e+00 
0.000000e+00 0.000000e+00 0.000000e+00 
0.000000e+00 0.000000e+00 0.000000e+00 
0.000000e+00 0.000000e+00 0.000000e+00 
0.000000e+00 0.000000e+00 0.000000e+00 
0.000000e+00 0.000000e+00 0.000000e+00 
0.000000e+00 0.000000e+00 0.000000e+00 
0.000000e+00 0.000000e+00 0.000000e+00 
0.000000e+00 0.000000e+00 0.000000e+00 
0.000000e+00 0.000000e+00 0.000000e+00 
0.000000e+00 0.000000e+00 0.000000e+00 
0.000000e+00 0.000000e+00 0.000000e+00 
0.000000e+00 0.000000e+00 0.000000e+00 
0.000000e+00 0.000000e+00 0.000000e+00 
0.000000e+00 0.000000e+00 0.000000e+00 
0.000000e+00 0.000000e+00 0.000000e+00 
0.000000e+00 0.000000e+00 0.000000e+00 
0.000000e+00 0.000000e+00 0.000000e+00 
0.000000e+00 0.000000e+00 0.000000e+00 
0.000000e+00 0.000000e+00 0.000000e+00 
0.000000e+00 0.000000e+00 0.000000e+00 
0.000000e+00 0.000000e+00 0.000000e+00 
0.000000e+00 0.000000e+00 0.000000e+00 
0.000000e+00 0.000000e+00 0.000000e+00 
0.000000e+00 0.000000e+00 0.000000e+00 
0.000000e+00 0.000000e+00 0.000000e+00 
0.000000e+00 0.000000e+00 0.000000e+00 
0.000000e+00 0.000000e+00 0.000000e+00 
0.000000e+00 0.000000e+00 0.000000e+00 
0.000000e+00 0.000000e+00 0.000000e+00 
0.000000e+00 0.000000e+00 0.000000e+00 
0.000000e+00 0.000000e+00 0.000000e+00 
0.000000e+00 0.000000e+00 0.000000e+00 
0.000000e+00 0.000000e+00 0.000000e+00 
0.000000e+00 0.000000e+00 0.000000e+00 
0.000000e+00 0.000000e+00 0.000000e+00 
0.000000e+00 0.000000e+00 0.000000e+00 
0.000000e+00 0.000000e+00 0.000000e+00 
0.000000e+00 0.000000e+00 0.000000e+00 
0.000000e+00 0.000000e+00 0.000000e+00 
0.000000e+00 0.000000e+00 0.000000e+00 
0.000000e+00 0.000000e+00 0.000000e+00 
0.000000e+00 0.000000e+00 0.000000e+00 
0.000000e+00 0.000000e+00 0.000000e+00 
0.000000e+00 0.000000e+00 0.000000e+00 
0.000000e+00 0.000000e+00 0.000000e+00 
0.000000e+00 0.000000e+00 0.000000e+00 
0.000000e+00 0.000000e+00 0.000000e+00 
0.000000e+00 0.000000e+00 0.000000e+00 
0.000000e+00 0.000000e+00 0.000000e+00 
0.000000e+00 0.000000e+00 0.000000e+00 
0.000000e+00 0.000000e+00 0.000000e+00 
0.000000e+00 0.000000e+00 0.000000e+00 
0.000000e+00 0.000000e+00 0.000000e+00 
0.000000e+00 0.000000e+00 0.000000e+00 
0.000000e+00 0.000000e+00 0.000000e+00 
0.000000e+00 0.000000e+00 0.000000e+00 
0.000000e+00 0.000000e+00 0.000000e+00 
0.000000e+00 0.000000e+00 0.000000e+00 
0.000000e+00 0.000000e+00 0.000000e+00 
0.000000e+00 0.000000e+00 0.000000e+00 
0.000000e+00 0.000000e+00 0.000000e+00 
0.000000e+00 0.000000e+00 0.000000e+00 
0.000000e+00 0.000000e+00 0.000000e+00 
0.000000e+00 0.000000e+00 0.000000e+00 
0.000000e+00 0.000000e+00 0.000000e+00 
0.000000e+00 0.000000e+00 0.000000e+00 
0.000000e+00 0.000000e+00 0.000000e+00 
0.000000e+00 0.000000e+00 0.000000e+00 
0.000000e+00 0.000000e+00 0.000000e+00 
0.000000e+00 0.000000e+00 0.000000e+00 
0.000000e+00 0.000000e+00 0.000000e+00 
0.000000e+00 0.000000e+00 0.000000e+00 
0.000000e+00 0.000000e+00 0.000000e+00 
0.000000e+00 0.000000e+00 0.000000e+00 
0.000000e+00 0.000000e+00 0.000000e+00 
0.000000e+00 0.000000e+00 0.000000e+00 
0.000000e+00 0.000000e+00 0.000000e+00 
0.000000e+00 0.000000e+00 0.000000e+00 
0.000000e+00 0.000000e+00 0.000000e+00 
0.000000e+00 0.000000e+00 0.000000e+00 
0.000000e+00 0.000000e+00 0.000000e+00 
0.000000e+00 0.000000e+00 0.000000e+00 
0.000000e+00 0.000000e+00 0.000000e+00 
0.000000e+00 0.000000e+00 0.000000e+00 
0.000000e+00 0.000000e+00 0.000000e+00 
0.000000e+00 0.000000e+00 0.000000e+00 
0.000000e+00 0.000000e+00 0.000000e+00 
0.000000e+00 0.000000e+00 0.000000e+00 
0.000000e+00 0.000000e+00 0.000000e+00 
0.000000e+00 0.000000e+00 0.000000e+00 
0.000000e+00 0.000000e+00 0.000000e+00 
0.000000e+00 0.000000e+00 0.000000e+00 
0.000000e+00 0.000000e+00 0.000000e+00 
0.000000e+00 0.000000e+00 0.000000e+00 
0.000000e+00 0.000000e+00 0.000000e+00 
0.000000e+00 0.000000e+00 0.000000e+00 
0.000000e+00 0.000000e+00 0.000000e+00 
0.000000e+00 0.000000e+00 0.000000e+00 
0.000000e+00 0.000000e+00 0.000000e+00 
0.000000e+00 0.000000e+00 0.000000e+00 
0.000000e+00 0.000000e+00 0.000000e+00 
0.000000e+00 0.000000e+00 0.000000e+00 
0.000000e+00 0.000000e+00 0.000000e+00 
0.000000e+00 0.000000e+00 0.000000e+00 
0.000000e+00 0.000000e+00 0.000000e+00 
0.000000e+00 0.000000e+00 0.000000e+00 
0.000000e+00 0.000000e+00 0.000000e+00 
0.000000e+00 0.000000e+00 0.000000e+00 
0.000000e+00 0.000000e+00 0.000000e+00 
0.000000e+00 0.000000e+00 0.000000e+00 
0.000000e+00 0.000000e+00 0.000000e+00 
0.000000e+00 0.000000e+00 0.000000e+00 
0.000000e+00 0.000000e+00 0.000000e+00 
0.000000e+00 0.000000e+00 0.000000e+00 
0.000000e+00 0.000000e+00 0.000000e+00 
0.000000e+00 0.000000e+00 0.000000e+00 
0.000000e+00 0.000000e+00 0.000000e+00 
0.000000e+00 0.000000e+00 0.000000e+00 
0.000000e+00 0.000000e+00 0.000000e+00 
0.000000e+00 0.000000e+00 0.000000e+00 
0.000000e+00 0.000000e+00 0.000000e+00 
0.000000e+00 0.000000e+00 0.000000e+00 
0.000000e+00 0.000000e+00 0.000000e+00 
0.000000e+00 0.000000e+00 0.000000e+00 
0.000000e+00 0.000000e+00 0.000000e+00 
0.000000e+00 0.000000e+00 0.000000e+00 
0.000000e+00 0.000000e+00 0.000000e+00 
0.000000e+00 0.000000e+00 0.000000e+00 
0.000000e+00 0.000000e+00 0.000000e+00 
0.000000e+00 0.000000e+00 0.000000e+00 
0.000000e+00 0.000000e+00 0.000000e+00 
0.000000e+00 0.000000e+00 0.000000e+00 
0.000000e+00 0.000000e+00 0.000000e+00 
0.000000e+00 0.000000e+00 0.000000e+00 
0.000000e+00 0.000000e+00 0.000000e+00 
0.000000e+00 0.000000e+00 0.000000e+00 
0.000000e+00 0.000000e+00 0.000000e+00 
0.000000e+00 0.000000e+00 0.000000e+00 
0.000000e+00 0.000000e+00 0.000000e+00 
0.000000e+00 0.000000e+00 0.000000e+00 
0.000000e+00 0.000000e+00 0.000000e+00 
0.000000e+00 0.000000e+00 0.000000e+00 
0.000000e+00 0.000000e+00 0.000000e+00 
0.000000e+00 0.000000e+00 0.000000e+00 
0.000000e+00 0.000000e+00 0.000000e+00 
0.000000e+00 0.000000e+00 0.000000e+00 
0.000000e+00 0.000000e+00 0.000000e+00 
0.000000e+00 0.000000e+00 0.000000e+00 
0.000000e+00 0.000000e+00 0.000000e+00 
0.000000e+00 0.000000e+00 0.000000e+00 
0.000000e+00 0.000000e+00 0.000000e+00 
0.000000e+00 0.000000e+00 0.000000e+00 
0.000000e+00 0.000000e+00 0.000000e+00 
0.000000e+00 0.000000e+00 0.000000e+00 
0.000000e+00 0.000000e+00 0.000000e+00 
0.000000e+00 0.000000e+00 0.000000e+00 
0.000000e+00 0.000000e+00 0.000000e+00 
0.000000e+00 0.000000e+00 0.000000e+00 
0.000000e+00 0.000000e+00 0.000000e+00 
0.000000e+00 0.000000e+00 0.000000e+00 
0.000000e+00 0.000000e+00 0.000000e+00 
0.000000e+00 0.000000e+00 0.000000e+00 
0.000000e+00 0.000000e+00 0.000000e+00 
0.000000e+00 0.000000e+00 0.000000e+00 
0.000000e+00 0.000000e+00 0.000000e+00 
0.000000e+00 0.000000e+00 0.000000e+00 
0.000000e+00 0.000000e+00 0.000000e+00 
0.000000e+00 0.000000e+00 0.000000e+00 
0.000000e+00 0.000000e+00 0.000000e+00 
0.000000e+00 0.000000e+00 0.000000e+00 
0.000000e+00 0.000000e+00 0.000000e+00 
0.000000e+00 0.000000e+00 0.000000e+00 
0.000000e+00 0.000000e+00 0.000000e+00 
0.000000e+00 0.000000e+00 0.000000e+00 
0.000000e+00 0.000000e+00 0.000000e+00 
0.000000e+00 0.000000e+00 0.000000e+00 
0.000000e+00 0.000000e+00 0.000000e+00 
0.000000e+00 0.000000e+00 0.000000e+00 
0.000000e+00 0.000000e+00 0.000000e+00 
0.000000e+00 0.000000e+00 0.000000e+00 
0.000000e+00 0.000000e+00 0.000000e+00 
0.000000e+00 0.000000e+00 0.000000e+00 
0.000000e+00 0.000000e+00 0.000000e+00 
0.000000e+00 0.000000e+00 0.000000e+00 
0.000000e+00 0.000000e+00 0.000000e+00 
0.000000e+00 0.000000e+00 0.000000e+00 
0.000000e+00 0.000000e+00 0.000000e+00 
0.000000e+00 0.000000e+00 0.000000e+00 
0.000000e+00 0.000000e+00 0.000000e+00 
0.000000e+00 0.000000e+00 0.000000e+00 
0.000000e+00 0.000000e+00 0.000000e+00 
0.000000e+00 0.000000e+00 0.000000e+00 
0.000000e+00 0.000000e+00 0.000000e+00 
0.000000e+00 0.000000e+00 0.000000e+00 
0.000000e+00 0.000000e+00 0.000000e+00 
0.000000e+00 0.000000e+00 0.000000e+00 
0.000000e+00 0.000000e+00 0.000000e+00 
0.000000e+00 0.000000e+00 0.000000e+00 
0.000000e+00 0.000000e+00 0.000000e+00 
0.000000e+00 0.000000e+00 0.000000e+00 
0.000000e+00 0.000000e+00 0.000000e+00 
0.000000e+00 0.000000e+00 0.000000e+00 
0.000000e+00 0.000000e+00 0.000000e+00 
0.000000e+00 0.000000e+00 0.000000e+00 
0.000000e+00 0.000000e+00 0.000000e+00 
0.000000e+00 0.000000e+00 0.000000e+00 
0.000000e+00 0.000000e+00 0.000000e+00 
0.000000e+00 0.000000e+00 0.000000e+00 
0.000000e+00 0.000000e+00 0.000000e+00 