# vtk DataFile Version 3.1
*description-name of input file* step:2101 
ASCII
DATASET UNSTRUCTURED_GRID
POINTS 1605 FLOAT
-7.198846e-09 -5.479273e-09 -2.682111e-10
-7.852803e-09 -4.428651e-09 -6.695974e-10
-6.279472e-09 -4.751739e-09 -7.374244e-10
-7.721079e-09 -4.176630e-09 2.041697e-09
-5.558947e-09 -5.944301e-09 -2.250027e-10
1.201336e-08 6.826706e-09 -1.070209e-08
1.358697e-08 7.254543e-09 -1.098233e-08
1.293792e-08 5.818114e-09 -1.203901e-08
-6.362749e-09 -6.151400e-09 7.182901e-10
-6.355903e-09 -2.798813e-09 8.894111e-10
-4.516097e-09 -4.545291e-09 -1.153540e-09
-6.192376e-09 -2.819163e-09 -3.353586e-10
-5.602707e-09 -5.313977e-09 2.206495e-09
-6.007235e-09 -3.737917e-09 1.743321e-09
-5.215991e-09 -3.590928e-09 -1.691915e-09
-7.472578e-09 -4.309314e-09 3.150820e-09
-3.704158e-09 -5.514495e-09 -2.289602e-11
-6.505500e-09 -1.088090e-09 1.075434e-10
-5.479974e-09 -1.412387e-09 -8.610637e-10
-3.951980e-09 -3.947552e-09 -3.326055e-09
-5.246795e-09 -2.690106e-09 -3.030209e-09
-4.065822e-09 -1.936956e-09 -3.878872e-09
-6.417434e-09 -2.467764e-09 2.315659e-09
-5.753624e-09 -1.926038e-12 -2.414631e-09
-6.395398e-09 4.678953e-10 -8.825270e-10
-3.692025e-09 -4.795998e-09 1.962793e-09
-7.286034e-09 -1.115893e-09 1.289496e-09
-5.853094e-09 -3.393271e-09 4.079170e-09
-4.185069e-09 -2.190529e-09 -4.255220e-10
-8.042587e-09 -2.308330e-09 3.077533e-09
-2.508439e-09 -4.448960e-09 -2.329061e-09
-2.908765e-09 -3.258591e-09 -3.958757e-09
-2.459480e-09 -4.211192e-09 -3.404248e-09
-3.553648e-09 -3.450994e-09 -5.873280e-10
-6.033260e-09 -2.389876e-09 4.075431e-09
-4.192223e-09 -8.505507e-10 -2.213301e-09
-5.816042e-09 -6.836458e-10 2.147391e-09
-4.713142e-09 -3.174269e-10 5.350210e-10
-2.900179e-09 -2.071418e-09 -2.024683e-09
-3.876213e-09 -3.945754e-09 3.680609e-09
-4.779185e-09 5.422641e-11 -5.663493e-10
-3.845560e-09 5.592160e-10 -5.115530e-09
-3.867893e-09 4.554625e-10 -2.859325e-09
-4.796522e-09 7.811567e-10 -3.673192e-09
-4.236850e-09 -2.552120e-09 2.147471e-09
-1.795990e-09 -3.278893e-09 -6.239265e-10
-4.410421e-09 2.234209e-09 -4.391548e-09
-2.676966e-09 -1.489483e-09 -3.141124e-09
-3.057031e-09 1.842811e-10 -2.562275e-09
-1.407465e-09 -1.829766e-09 -3.202573e-09
-3.336436e-09 3.410310e-10 -7.361991e-10
-3.140767e-09 -1.980300e-09 2.348894e-10
-3.399281e-09 -4.776207e-11 -4.935401e-09
-1.827782e-09 -2.421076e-09 -1.674880e-09
-3.770038e-09 -5.806744e-10 8.299231e-09
-2.230173e-09 -1.729243e-09 7.534059e-09
-1.788589e-09 4.053704e-10 7.325472e-09
-1.544918e-09 6.198526e-10 -3.993894e-09
-5.761991e-09 -3.180076e-09 6.133397e-09
-4.457869e-09 2.244079e-09 -2.592600e-09
-3.654898e-09 -2.815109e-09 3.828189e-09
-4.528843e-09 -3.603992e-10 2.717011e-09
-3.928157e-09 -1.426976e-09 1.457149e-09
-5.580937e-09 2.384603e-09 -3.444042e-10
-4.988274e-09 7.395208e-10 9.852921e-10
-6.540943e-09 1.921060e-09 1.977453e-09
-4.841447e-09 -4.659159e-09 5.890544e-09
-4.560247e-09 -3.779500e-09 7.020588e-09
-6.343691e-09 -1.560004e-09 6.754377e-09
-2.062801e-09 1.754452e-09 1.959380e-09
-1.690945e-10 2.095340e-09 3.925744e-09
-1.065490e-09 1.836819e-09 6.337863e-10
-4.561935e-09 5.906288e-10 -8.905954e-10
-3.016997e-09 -4.424554e-09 5.327235e-09
9.315151e-10 3.031143e-10 3.669658e-09
8.892053e-10 1.190490e-09 4.288200e-09
-1.884917e-11 7.163291e-10 5.600833e-09
-5.562249e-09 3.190354e-09 1.423543e-09
-4.784172e-09 -1.629658e-09 5.417968e-09
-1.129127e-09 -1.629968e-10 -1.206314e-09
-4.608618e-09 -2.243272e-09 4.609896e-09
-3.481873e-09 1.908279e-10 7.729860e-10
-2.133703e-09 -5.919023e-10 6.161965e-11
-5.740479e-09 2.322954e-09 3.850063e-09
-2.441821e-09 -4.977908e-09 3.575094e-09
-2.946415e-09 2.589291e-09 -4.020268e-09
-2.334641e-09 -3.564312e-09 2.735205e-09
-5.783103e-09 -5.838926e-10 5.446540e-09
-2.849129e-09 1.812129e-09 -2.249176e-09
-4.218397e-09 -1.147692e-10 4.804579e-09
-2.860023e-09 -2.908075e-09 5.098516e-09
-5.694193e-09 -7.588038e-10 4.124717e-09
-3.325351e-09 -1.076582e-09 4.247020e-09
-3.292171e-10 -1.573420e-09 8.952107e-11
-4.333413e-09 3.306545e-09 2.442842e-09
-3.574347e-09 2.769712e-09 -8.543897e-10
-2.254506e-10 -1.335467e-09 -3.341095e-09
3.742108e-10 -2.728816e-09 -2.804620e-09
-3.958710e-09 -2.417254e-09 7.898595e-09
-5.358242e-09 -1.455508e-09 7.592149e-09
-5.236429e-09 1.944366e-10 7.815985e-09
6.774932e-10 2.173951e-09 3.167495e-09
-3.652733e-09 1.317028e-09 8.538995e-10
-4.049470e-09 2.919575e-09 2.951157e-10
-6.430630e-09 1.179569e-09 4.706439e-09
-4.345388e-09 -8.580074e-11 3.527834e-09
-3.693044e-09 -2.653618e-09 6.343341e-09
-1.122038e-10 3.337721e-11 -3.066123e-09
-1.390795e-09 -2.670015e-09 3.668831e-09
-4.931441e-09 1.422058e-09 6.888050e-09
-3.586841e-09 8.188806e-10 3.239298e-09
-4.253328e-09 2.257718e-09 5.507595e-09
-4.188253e-09 1.953713e-09 2.960167e-09
-3.481694e-10 -3.997668e-09 2.729783e-09
8.009424e-10 -3.648705e-09 4.444808e-09
-4.087978e-09 2.247100e-09 2.035394e-09
5.187291e-10 -1.841524e-09 -5.437288e-10
-4.158592e-09 2.733312e-09 4.060661e-09
1.468984e-09 -9.062701e-10 -3.331159e-09
-7.721265e-10 -3.927949e-09 6.203724e-09
-6.496015e-10 -6.848887e-10 1.184529e-09
-2.270584e-09 -3.342562e-09 6.405102e-09
-1.957125e-09 -2.346974e-09 5.604121e-09
-1.702012e-09 -3.749030e-10 2.780593e-09
-1.383540e-09 -1.754486e-09 4.423931e-09
-2.692984e-09 1.299670e-09 3.649246e-09
1.768029e-09 -1.061127e-09 -1.406300e-09
7.251589e-10 6.975051e-10 -1.302211e-09
1.461358e-09 -6.554498e-10 5.799612e-09
-3.214220e-09 1.220258e-09 5.953245e-09
8.414143e-10 7.033336e-10 -3.190628e-09
9.997810e-10 -4.741863e-09 3.042256e-09
-8.738246e-10 -7.900050e-10 3.972693e-09
1.040204e-09 -1.163599e-09 -1.921390e-10
6.982430e-10 -3.487395e-09 5.512893e-09
-3.021897e-09 8.433625e-10 7.359658e-09
-2.392604e-09 2.227964e-09 5.829747e-09
-1.267385e-09 -2.040255e-09 6.700931e-09
2.243452e-09 -4.752366e-09 3.598128e-09
2.050559e-09 -3.670057e-09 2.499964e-09
-3.803991e-10 -1.578097e-09 2.878281e-09
-3.885771e-10 -2.694265e-09 7.173946e-09
1.468309e-09 -1.671907e-09 1.723203e-09
2.034241e-09 -2.308051e-10 -2.240649e-09
-1.156078e-09 1.590035e-09 3.635447e-09
-9.337939e-10 -1.202507e-09 8.070860e-09
1.828494e-09 4.491015e-10 -7.878393e-11
2.673809e-09 -3.683684e-09 4.754469e-09
3.263127e-09 -4.020970e-09 3.565982e-09
1.806358e-09 1.320061e-09 -1.246132e-09
5.044183e-10 -2.461187e-09 6.433705e-09
-1.703971e-09 8.076316e-10 5.156858e-09
2.874009e-09 -3.580388e-10 9.129471e-10
2.377628e-09 4.823086e-10 -4.123432e-09
1.867173e-09 -2.765069e-09 4.996455e-09
3.784897e-09 -2.676827e-09 2.435943e-09
3.647008e-09 3.741141e-10 -2.222492e-09
2.820273e-09 2.358268e-09 -2.640495e-09
2.736597e-09 2.351876e-09 -4.273393e-09
3.451873e-09 1.012296e-09 -4.101123e-09
4.502395e-09 1.754095e-09 -5.468629e-09
1.134331e-09 -1.483314e-09 4.236449e-09
6.149943e-10 -6.985064e-10 7.512377e-09
2.725102e-09 -7.176471e-10 2.016388e-09
1.404764e-09 1.368827e-09 6.226611e-10
2.061446e-09 1.371264e-09 -1.283336e-10
4.617013e-09 1.677723e-09 -3.692772e-09
2.581616e-10 1.420103e-09 7.325912e-09
1.402910e-09 1.092628e-09 2.131603e-09
2.962767e-09 -2.241412e-09 3.493091e-09
2.128984e-09 -6.812716e-11 3.381895e-09
3.664546e-09 -6.590257e-10 2.060969e-09
4.335849e-09 2.601796e-09 -3.682440e-09
3.152186e-09 8.990754e-10 -8.997719e-10
3.266825e-09 1.378611e-09 -2.000100e-09
4.847310e-09 2.712824e-09 -5.121462e-09
3.406569e-09 1.011992e-09 9.657678e-10
5.184141e-09 1.957400e-09 -6.034481e-09
5.392842e-09 1.675221e-09 -4.529211e-09
3.716241e-09 -8.402879e-11 5.857021e-12
3.121632e-09 1.030573e-09 2.817309e-09
6.519728e-09 1.400184e-09 -5.669529e-09
5.905472e-09 2.790238e-09 -4.073339e-09
7.436079e-09 3.023041e-09 -6.831183e-09
6.836347e-09 2.213178e-09 -4.989803e-09
7.520308e-09 2.021672e-09 -6.336065e-09
6.114643e-09 3.629613e-09 -4.991913e-09
7.262536e-09 3.198613e-09 -5.467799e-09
8.683688e-09 2.924311e-09 -5.908768e-09
8.458754e-09 2.766114e-09 -7.044919e-09
8.680937e-09 4.177039e-09 -6.633185e-09
9.580599e-09 3.016996e-09 -6.560443e-09
1.028381e-08 4.485640e-09 -7.845087e-09
1.020104e-08 5.032181e-09 -7.724987e-09
9.569784e-09 4.029745e-09 -5.948772e-09
1.118408e-08 4.570359e-09 -6.630623e-09
1.026258e-08 4.915693e-09 -6.167056e-09
1.138224e-08 5.009284e-09 -8.465885e-09
1.129966e-08 6.693844e-09 -7.494941e-09
1.124571e-08 5.393880e-09 -6.495350e-09
1.295515e-08 4.852651e-09 -8.262811e-09
1.136730e-08 6.429217e-09 -1.006202e-08
1.178098e-08 5.791937e-09 -1.026282e-08
1.116100e-08 5.854831e-09 -8.887290e-09
1.237606e-08 5.050315e-09 -9.095021e-09
1.162142e-08 5.976163e-09 -7.049405e-09
1.288372e-08 5.519014e-09 -8.155029e-09
1.345123e-08 5.111114e-09 -9.054163e-09
1.403979e-08 5.192650e-09 -1.064430e-08
1.165005e-08 6.810938e-09 -8.710585e-09
1.423869e-08 6.707849e-09 -1.041341e-08
1.407897e-08 6.438612e-09 -9.042446e-09
1.375863e-08 7.822699e-09 -9.266885e-09
1.933902e-09 1.345663e-09 -6.872328e-10
-4.259478e-09 -3.098377e-09 7.459592e-09
7.478193e-09 2.522356e-09 -6.583624e-09
7.349307e-09 3.110827e-09 -6.149491e-09
1.247564e-08 6.322410e-09 -1.137055e-08
2.405667e-09 1.190410e-09 7.942145e-10
-4.057811e-09 1.976287e-10 -6.512742e-10
7.973112e-09 3.061462e-09 -5.688283e-09
4.365780e-10 3.607985e-10 7.419145e-09
-2.019842e-10 2.672542e-10 -1.254262e-09
-2.978605e-09 -9.435685e-10 -2.293479e-09
7.947417e-09 2.894577e-09 -6.938051e-09
-4.627195e-09 1.512618e-09 -3.132896e-09
-5.764609e-09 1.330291e-09 1.481373e-09
-1.334362e-10 1.390262e-09 3.961824e-09
1.297844e-09 -1.069382e-09 5.018030e-09
1.024243e-08 4.758911e-09 -7.785037e-09
-4.583985e-09 -3.769240e-09 -2.508985e-09
-4.068724e-09 2.583337e-09 1.165255e-09
-3.257461e-09 -2.861592e-09 4.463353e-09
-6.051596e-09 2.555707e-09 1.700498e-09
1.121490e-08 4.982119e-09 -6.562987e-09
1.196562e-10 1.068216e-09 6.463372e-09
3.064776e-10 3.654412e-10 -2.184167e-09
3.600554e-10 1.642915e-09 4.106972e-09
-4.696395e-09 -1.936465e-09 5.013932e-09
-1.673960e-09 -2.508494e-09 4.636476e-09
-4.191442e-09 3.113060e-09 1.368979e-09
-2.158115e-09 -2.544179e-09 -3.580665e-09
1.326245e-08 6.536328e-09 -1.151067e-08
[...]
POINT_DATA 1605
VECTORS vector_force float
7.196360e+01 9.496894e+01 -1.868295e+02 
-5.344340e+02 -8.418811e+01 9.620885e+02 
-5.126559e+02 1.659378e+01 1.122722e+02 
-6.676582e+02 7.726613e+02 1.366186e+02 
9.536737e+01 2.821875e+02 -7.325138e+02 
-4.011422e+02 -9.724299e+01 -2.706995e+02 
-8.866237e+02 9.688658e+02 -9.803812e+02 
3.857285e+02 5.172297e+02 -5.837119e+02 
2.195749e+02 -8.908576e+00 -1.440942e+02 
3.932990e+02 -3.511390e+02 1.054593e+02 
-1.078442e+02 5.194398e+02 3.737341e+01 
5.098013e+01 -3.407122e+02 5.115182e+02 
-1.878929e+02 2.062509e+02 -4.039310e+02 
3.374092e+02 -2.654875e+01 3.285970e+02 
-7.886113e+02 2.031025e+02 2.999403e+02 
-8.295393e+00 5.647869e+02 -2.775353e+01 
-6.883735e+02 3.674839e+02 -5.744920e+02 
5.341103e+02 -1.985463e+02 -1.240404e+00 
-3.443041e+02 2.525058e+02 -3.798216e+02 
1.447908e+02 3.989730e+02 -2.465957e+02 
2.384864e+02 4.928564e+02 -4.033038e+02 
-3.049967e+02 1.296530e+03 -3.637761e+02 
-9.753391e+01 4.353706e+02 -3.353257e+02 
-3.416853e+01 -8.211766e+02 -2.065206e+02 
-2.888342e+02 2.425193e+02 5.717894e+02 
4.998369e+02 -2.833460e+02 -2.145087e+02 
-9.031645e+01 -4.719665e+02 -1.211489e+02 
-3.457716e+02 -1.635818e+02 -8.701813e+02 
-3.008581e+02 -7.030008e+01 -3.244731e+02 
4.196970e+02 4.072720e+02 -4.434065e+02 
2.543306e+02 7.955766e+02 -2.078173e+02 
1.118984e+03 5.554747e+02 -9.581086e+02 
5.411858e+02 1.272769e+03 -4.912969e+02 
-1.815529e+02 3.578413e+02 -4.784384e+02 
-1.832358e+02 -3.927046e+02 -5.157073e+02 
-3.798694e+02 -9.496032e+01 3.105978e+02 
1.227061e+02 -1.201670e+02 -1.130350e+02 
-3.798345e+02 2.504474e+02 1.311536e+02 
-2.758500e+02 3.622717e+02 8.077570e+01 
-3.458558e+02 -1.727567e+02 2.543463e+02 
-2.388526e+01 2.364236e+01 -2.542414e+02 
-3.029998e+02 -1.629105e+02 3.200360e+02 
4.233525e+02 6.528528e+01 -7.324737e+02 
7.119642e+02 -9.266861e+02 2.109787e+02 
1.844259e+02 3.780139e+02 2.853048e+02 
-1.646376e+02 3.294439e+02 4.223243e+02 
4.132498e+02 -4.275942e+02 1.026839e+03 
1.024573e+03 -4.032213e+02 -9.034760e+02 
5.214440e+02 1.086796e+02 -2.721605e+02 
4.813433e+02 6.202075e+02 2.487755e+02 
-5.766135e+02 4.675237e+02 -6.936415e+02 
-7.239610e+02 -7.340113e+02 5.030260e+01 
-1.041460e+02 -2.614442e+02 9.809609e+02 
-2.076342e+02 -4.150508e+02 7.338536e+01 
-2.007379e+02 4.708816e+02 -9.071570e+02 
-3.331476e+02 7.146589e+02 2.621943e+02 
-4.642613e+02 -1.804043e+02 -1.985337e+02 
7.584311e+02 -7.832811e+01 1.628786e+03 
-3.271810e+02 -2.882508e+02 -2.903045e+02 
-3.298594e+01 -4.160155e+02 2.294189e+02 
-8.502145e+02 -2.797750e+01 6.079065e+02 
-1.906415e+02 -9.254443e+02 3.967265e+02 
1.124547e+02 -5.455614e+00 -2.553170e+02 
-5.858644e+02 -3.502507e+01 5.604874e+02 
5.670949e+02 -7.084390e+02 -2.956907e+02 
4.349493e+02 1.081324e+00 6.032277e+02 
-5.760488e+02 5.709812e+02 1.098858e+02 
-4.254615e+02 -1.595916e+02 1.985374e+02 
6.972784e+02 4.968648e+02 1.315207e+02 
-1.950602e+02 7.156898e+02 4.831428e+02 
3.076228e+01 6.124428e+01 2.602304e+02 
-2.491392e+00 -1.895052e+02 3.899600e+02 
8.190375e+02 -8.659350e+01 1.471265e+02 
-3.308274e+02 2.870348e+01 -2.940739e+02 
-9.580066e+01 9.255602e+01 2.878838e+02 
9.224225e+02 -3.733843e+02 1.341841e+02 
2.900139e+02 -8.146107e+01 3.051816e+02 
-3.582546e+01 1.793141e+02 -5.465033e+02 
4.047968e+02 -5.442946e+01 1.227794e+02 
-1.887818e+02 6.536214e+02 -1.470254e+02 
-4.399950e+02 -2.015471e+01 2.852460e+02 
-4.093124e+02 3.430641e+01 -1.520059e+02 
-3.993042e+02 3.985358e+02 5.328373e+02 
-8.329237e+02 -9.045068e+02 -3.504933e+02 
-5.315142e+02 -2.101349e+02 -7.888141e+02 
-5.287546e+02 -1.940576e+02 -7.269622e+02 
6.154326e+01 1.181721e+02 1.908314e+02 
2.589864e+02 5.125190e+02 -8.528398e+01 
-4.808088e+02 -3.465177e+02 7.501732e+02 
4.489100e+02 -2.149696e+02 -5.865723e+02 
1.501670e+02 -9.535765e+01 -4.525444e+01 
9.623875e+01 -4.511534e+02 -3.437484e+02 
6.158019e+01 -2.188891e+02 1.567511e+02 
-2.900977e+02 7.032782e+02 2.121470e+02 
2.797331e+02 4.546477e+02 2.066801e+02 
-4.267256e+02 3.113416e+02 -8.523321e+01 
5.054055e+02 8.090685e+02 -7.616603e+01 
3.345285e+02 6.492865e+02 -3.208940e+02 
-2.133818e+02 -4.791122e+02 7.332070e+02 
-1.364864e+02 -6.054418e+02 -1.087265e+02 
5.938442e+02 -3.722537e+02 -1.013906e+03 
1.697478e+02 2.195994e+02 -3.062269e+02 
6.719821e+02 1.820033e+03 8.917136e+01 
9.957916e+01 -3.141640e+01 1.621335e+02 
2.417919e+02 -2.694485e+02 -1.359070e+02 
-1.059963e+02 -9.260242e+02 -6.190069e+02 
1.080057e+02 -5.001918e+02 -7.845806e+01 
-3.476647e+02 1.451795e+02 -4.262860e+02 
3.089550e+01 -2.439557e+02 -1.668728e+02 
-1.583861e+02 -5.326517e+02 -3.964277e+02 
1.080409e+02 -7.712282e+01 2.071917e+02 
-7.709946e+02 1.002823e+03 -6.904815e+02 
-3.745356e+02 -3.848176e+02 -2.096922e+02 
-4.722156e+02 1.037136e+02 5.073111e+02 
-1.307296e+01 -4.820588e+02 -1.378904e+01 
-2.686521e+02 5.260987e+01 -1.296045e+02 
-2.741571e+01 7.568902e+02 2.092780e+02 
-5.953695e+02 -9.443195e+02 2.808965e+02 
-3.491862e+02 5.225410e+02 2.773582e+02 
-5.276808e+02 -2.372098e+02 -3.938769e+02 
-4.795077e+02 4.548744e+02 4.574313e+02 
1.050717e+02 -3.277724e+02 -3.924989e+02 
3.346233e+02 -1.100289e+01 3.512259e+02 
6.007554e+01 4.092961e+01 3.183811e+02 
2.274415e+02 -2.635780e+01 3.951056e+02 
1.447529e+02 -2.269790e+02 2.494037e+02 
-1.064929e+03 1.714462e+02 1.557826e+02 
3.279599e+02 -1.603651e+01 -9.572002e+01 
-6.486272e+02 -2.947703e+02 2.376965e+01 
5.614809e+01 -5.605351e+01 -6.843066e+01 
-1.703569e+02 1.107019e+03 3.786258e+02 
-4.833910e+02 7.087349e+02 -3.403784e+01 
2.749614e+02 1.005233e+02 1.539361e+02 
-3.658025e+02 1.485311e+02 -2.132058e+02 
4.201991e+02 -4.981790e+02 3.797068e+02 
-9.347471e+01 3.472922e+02 2.490414e+02 
-1.047824e+02 9.525255e+02 9.252475e+02 
3.295188e+02 6.937465e+01 4.440185e+02 
-6.715977e+02 -9.049975e+02 -3.630521e+00 
7.034364e+02 -2.697373e+02 4.317982e+02 
4.184393e+02 -3.012072e+02 -1.068471e+02 
5.040676e+02 -2.860952e+02 5.735141e+02 
8.485886e+02 -3.432199e+02 2.447090e+01 
-5.898993e+01 5.732957e+02 -2.641917e+02 
3.464274e+02 -8.313082e+01 2.777462e+02 
-3.669214e+00 2.471085e+02 -3.403305e+02 
3.310048e+02 -1.216847e+02 -1.603308e+02 
-5.015029e+02 -8.500850e+02 -1.571387e+02 
1.797343e+02 1.164601e+02 6.544300e+02 
-1.464607e+01 6.781815e+01 -5.802923e+02 
1.648443e+02 -1.510634e+02 9.456196e+02 
-1.263049e+02 4.656618e+02 -1.205566e+02 
3.440544e+02 -1.826938e+02 3.198739e+02 
2.963412e+02 -5.089043e+02 -1.855434e+02 
4.973913e+01 -1.775129e+02 3.910431e+02 
4.239238e+02 7.644222e+02 2.366876e+02 
-2.678894e+02 5.556722e+02 -1.914013e+01 
4.020031e+02 1.748257e+02 -2.748422e+02 
4.418431e+02 -7.742012e+02 4.307693e+02 
-6.615707e+02 -9.510757e+02 3.089951e+02 
-4.245060e+02 -6.280024e+02 6.266666e+02 
-1.393977e+02 2.890729e+02 -2.764463e+02 
-1.657278e+02 -5.288787e+02 1.069801e+02 
3.097992e+02 2.342548e+02 -2.686877e+02 
3.521351e+02 -4.347815e+02 5.485052e+02 
-3.254472e+02 -3.545653e+02 -3.116478e+02 
1.675102e+02 -3.011295e+02 7.237808e+02 
-1.200415e+02 4.867633e+02 -9.023758e+00 
1.327145e+02 1.990763e+02 5.456988e+02 
-1.969217e+02 8.372287e+02 6.379787e+02 
-7.433899e+02 -6.336826e+02 1.183776e+02 
5.763716e+02 1.650388e+03 -7.103652e+02 
2.762238e+02 1.784284e+02 2.817490e+02 
2.128077e+02 -3.981290e+02 -6.756511e+02 
8.861377e+01 8.884257e+02 -1.242672e+02 
-1.453867e+02 -5.974392e+02 -2.850692e+02 
-4.587777e+02 -3.785027e+02 -5.543924e+01 
-2.154670e+02 -3.441987e+02 -1.026456e+02 
7.046634e+02 2.002119e+02 4.153786e+02 
-5.919293e+02 -1.176519e+03 1.767680e+03 
-5.580145e+02 3.728694e+02 6.103109e+02 
6.145584e+02 2.538585e+02 1.728412e+02 
-8.681896e+02 4.348010e+02 -2.133595e+02 
-1.509517e+02 -7.348723e+01 -4.700734e+02 
-7.153974e+02 3.074740e+02 -9.701459e+01 
7.809679e+02 5.674602e+02 -9.951738e+00 
2.804179e+02 1.138129e+02 -1.221719e+03 
-6.590039e+02 4.337316e+02 -2.352896e+02 
2.040290e+02 -2.922054e+01 -3.674024e+02 
4.454560e+02 7.254294e+02 7.457410e+02 
5.251360e+01 -6.162308e+02 -8.244028e+02 
-2.869697e+02 1.820867e+03 -7.910203e+02 
4.900305e+02 3.063984e+02 -1.154347e+03 
4.214888e+02 6.782466e+02 -7.613594e+02 
-1.548442e+02 -9.299280e+01 -7.985157e+02 
1.020849e+03 -5.393840e+01 -5.826894e+02 
1.230044e+02 2.365363e+02 -7.202958e+02 
-5.943451e+02 5.736458e+02 -3.095372e+02 
8.224238e+02 -3.858323e+02 1.367426e+02 
8.981668e+02 6.261605e+02 8.749303e+01 
6.268966e+02 -1.200674e+02 -3.486515e+02 
5.044075e+02 7.330883e+02 -3.825244e+02 
4.896326e+02 5.490115e+02 -7.082340e+02 
5.217989e+02 7.702318e+02 2.522350e+01 
3.694470e+02 3.902212e+02 -2.728167e+02 
7.618176e+02 7.094016e+02 1.609476e+02 
3.712028e+02 -1.601044e+02 -3.905039e+02 
2.939288e+02 5.172073e+02 -6.120215e+02 
1.109776e+02 1.164362e+03 -1.540552e+03 
1.538274e+02 8.032449e+02 3.865975e+02 
3.310769e+02 3.506789e+02 -4.437882e+02 
6.397195e+01 4.574082e+02 -1.248490e+02 
-4.333307e+02 4.565562e+02 1.276833e+03 
0.000000e+00 0.000000e+00 0.000000e+00 
0.000000e+00 0.000000e+00 0.000000e+00 
0.000000e+00 0.000000e+00 0.000000e+00 
0.000000e+00 0.000000e+00 0.000000e+00 
0.000000e+00 0.000000e+00 0.000000e+00 
0.000000e+00 0.000000e+00 0.000000e+00 
0.000000e+00 0.000000e+00 0.000000e+00 
0.000000e+00 0.000000e+00 0.000000e+00 
0.000000e+00 0.000000e+00 0.000000e+00 
0.000000e+00 0.000000e+00 0.000000e+00 
0.000000e+00 0.000000e+00 0.000000e+00 
0.000000e+00 0.000000e+00 0.000000e+00 
0.000000e+00 0.000000e+00 0.000000e+00 
0.000000e+00 0.000000e+00 0.000000e+00 
0.000000e+00 0.000000e+00 0.000000e+00 
0.000000e+00 0.000000e+00 0.000000e+00 
0.000000e+00 0.000000e+00 0.000000e+00 
0.000000e+00 0.000000e+00 0.000000e+00 
0.000000e+00 0.000000e+00 0.000000e+00 
0.000000e+00 0.000000e+00 0.000000e+00 
0.000000e+00 0.000000e+00 0.000000e+00 
0.000000e+00 0.000000e+00 0.000000e+00 
0.000000e+00 0.000000e+00 0.000000e+00 
0.000000e+00 0.000000e+00 0.000000e+00 
0.000000e+00 0.000000e+00 0.000000e+00 
0.000000e+00 0.000000e+00 0.000000e+00 
0.000000e+00 0.000000e+00 0.000000e+00 
0.000000e+00 0.000000e+00 0.000000e+00 
0.000000e+00 0.000000e+00 0.000000e+00 
0.000000e+00 0.000000e+00 0.000000e+00 
0.000000e+00 0.000000e+00 0.000000e+00 
0.000000e+00 0.000000e+00 0.000000e+00 
0.000000e+00 0.000000e+00 0.000000e+00 
0.000000e+00 0.000000e+00 0.000000e+00 
0.000000e+00 0.000000e+00 0.000000e+00 
0.000000e+00 0.000000e+00 0.000000e+00 
0.000000e+00 0.000000e+00 0.000000e+00 
0.000000e+00 0.000000e+00 0.000000e+00 
0.000000e+00 0.000000e+00 0.000000e+00 
0.000000e+00 0.000000e+00 0.000000e+00 
0.000000e+00 0.000000e+00 0.000000e+00 
0.000000e+00 0.000000e+00 0.000000e+00 
0.000000e+00 0.000000e+00 0.000000e+00 
0.000000e+00 0.000000e+00 0.000000e+00 
0.000000e+00 0.000000e+00 0.000000e+00 
0.000000e+00 0.000000e+00 0.000000e+00 
0.000000e+00 0.000000e+00 0.000000e+00 
0.000000e+00 0.000000e+00 0.000000e+00 
0.000000e+00 0.000000e+00 0.000000e+00 
0.000000e+00 0.000000e+00 0.000000e+00 
0.000000e+00 0.000000e+00 0.000000e+00 
0.000000e+00 0.000000e+00 0.000000e+00 
0.000000e+00 0.000000e+00 0.000000e+00 
0.000000e+00 0.000000e+00 0.000000e+00 
0.000000e+00 0.000000e+00 0.000000e+00 
0.000000e+00 0.000000e+00 0.000000e+00 
0.000000e+00 0.000000e+00 0.000000e+00 
0.000000e+00 0.000000e+00 0.000000e+00 
0.000000e+00 0.000000e+00 0.000000e+00 
0.000000e+00 0.000000e+00 0.000000e+00 
0.000000e+00 0.000000e+00 0.000000e+00 
0.000000e+00 0.000000e+00 0.000000e+00 
0.000000e+00 0.000000e+00 0.000000e+00 
0.000000e+00 0.000000e+00 0.000000e+00 
0.000000e+00 0.000000e+00 0.000000e+00 
0.000000e+00 0.000000e+00 0.000000e+00 
0.000000e+00 0.000000e+00 0.000000e+00 
0.000000e+00 0.000000e+00 0.000000e+00 
0.000000e+00 0.000000e+00 0.000000e+00 
0.000000e+00 0.000000e+00 0.000000e+00 
0.000000e+00 0.000000e+00 0.000000e+00 
0.000000e+00 0.000000e+00 0.000000e+00 
0.000000e+00 0.000000e+00 0.000000e+00 
0.000000e+00 0.000000e+00 0.000000e+00 
0.000000e+00 0.000000e+00 0.000000e+00 
0.000000e+00 0.000000e+00 0.000000e+00 
0.000000e+00 0.000000e+00 0.000000e+00 
0.000000e+00 0.000000e+00 0.000000e+00 
0.000000e+00 0.000000e+00 0.000000e+00 
0.000000e+00 0.000000e+00 0.000000e+00 
0.000000e+00 0.000000e+00 0.000000e+00 
0.000000e+00 0.000000e+00 0.000000e+00 
0.000000e+00 0.000000e+00 0.000000e+00 
0.000000e+00 0.000000e+00 0.000000e+00 
0.000000e+00 0.000000e+00 0.000000e+00 
0.000000e+00 0.000000e+00 0.000000e+00 
0.000000e+00 0.000000e+00 0.000000e+00 
0.000000e+00 0.000000e+00 0.000000e+00 
0.000000e+00 0.000000e+00 0.000000e+00 
0.000000e+00 0.000000e+00 0.000000e+00 
0.000000e+00 0.000000e+00 0.000000e+00 
0.000000e+00 0.000000e+00 0.000000e+00 
0.000000e+00 0.000000e+00 0.000000e+00 
0.000000e+00 0.000000e+00 0.000000e+00 
0.000000e+00 0.000000e+00 0.000000e+00 
0.000000e+00 0.000000e+00 0.000000e+00 
0.000000e+00 0.000000e+00 0.000000e+00 
0.000000e+00 0.000000e+00 0.000000e+00 
0.000000e+00 0.000000e+00 0.000000e+00 
0.000000e+00 0.000000e+00 0.000000e+00 
0.000000e+00 0.000000e+00 0.000000e+00 
0.000000e+00 0.000000e+00 0.000000e+00 
0.000000e+00 0.000000e+00 0.000000e+00 
0.000000e+00 0.000000e+00 0.000000e+00 
0.000000e+00 0.000000e+00 0.000000e+00 
0.000000e+00 0.000000e+00 0.000000e+00 
0.000000e+00 0.000000e+00 0.000000e+00 
0.000000e+00 0.000000e+00 0.000000e+00 
0.000000e+00 0.000000e+00 0.000000e+00 
0.000000e+00 0.000000e+00 0.000000e+00 
0.000000e+00 0.000000e+00 0.000000e+00 
0.000000e+00 0.000000e+00 0.000000e+00 
0.000000e+00 0.000000e+00 0.000000e+00 
0.000000e+00 0.000000e+00 0.000000e+00 
0.000000e+00 0.000000e+00 0.000000e+00 
0.000000e+00 0.000000e+00 0.000000e+00 
0.000000e+00 0.000000e+00 0.000000e+00 
0.000000e+00 0.000000e+00 0.000000e+00 
0.000000e+00 0.000000e+00 0.000000e+00 
0.000000e+00 0.000000e+00 0.000000e+00 
0.000000e+00 0.000000e+00 0.000000e+00 
0.000000e+00 0.000000e+00 0.000000e+00 
0.000000e+00 0.000000e+00 0.000000e+00 
0.000000e+00 0.000000e+00 0.000000e+00 
0.000000e+00 0.000000e+00 0.000000e+00 
0.000000e+00 0.000000e+00 0.000000e+00 
0.000000e+00 0.000000e+00 0.000000e+00 
0.000000e+00 0.000000e+00 0.000000e+00 
0.000000e+00 0.000000e+00 0.000000e+00 
0.000000e+00 0.000000e+00 0.000000e+00 
0.000000e+00 0.000000e+00 0.000000e+00 
0.000000e+00 0.000000e+00 0.000000e+00 
0.000000e+00 0.000000e+00 0.000000e+00 
0.000000e+00 0.000000e+00 0.000000e+00 
0.000000e+00 0.000000e+00 0.000000e+00 
0.000000e+00 0.000000e+00 0.000000e+00 
0.000000e+00 0.000000e+00 0.000000e+00 
0.000000e+00 0.000000e+00 0.000000e+00 
0.000000e+00 0.000000e+00 0.000000e+00 
0.000000e+00 0.000000e+00 0.000000e+00 
0.000000e+00 0.000000e+00 0.000000e+00 
0.000000e+00 0.000000e+00 0.000000e+00 
0.000000e+00 0.000000e+00 0.000000e+00 
0.000000e+00 0.000000e+00 0.000000e+00 
0.000000e+00 0.000000e+00 0.000000e+00 
0.000000e+00 0.000000e+00 0.000000e+00 
0.000000e+00 0.000000e+00 0.000000e+00 
0.000000e+00 0.000000e+00 0.000000e+00 
0.000000e+00 0.000000e+00 0.000000e+00 
0.000000e+00 0.000000e+00 0.000000e+00 
0.000000e+00 0.000000e+00 0.000000e+00 
0.000000e+00 0.000000e+00 0.000000e+00 
0.000000e+00 0.000000e+00 0.000000e+00 
0.000000e+00 0.000000e+00 0.000000e+00 
0.000000e+00 0.000000e+00 0.000000e+00 
0.000000e+00 0.000000e+00 0.000000e+00 
0.000000e+00 0.000000e+00 0.000000e+00 
0.000000e+00 0.000000e+00 0.000000e+00 
0.000000e+00 0.000000e+00 0.000000e+00 
0.000000e+00 0.000000e+00 0.000000e+00 
0.000000e+00 0.000000e+00 0.000000e+00 
0.000000e+00 0.000000e+00 0.000000e+00 
0.000000e+00 0.000000e+00 0.000000e+00 
0.000000e+00 0.000000e+00 0.000000e+00 
0.000000e+00 0.000000e+00 0.000000e+00 
0.000000e+00 0.000000e+00 0.000000e+00 
0.000000e+00 0.000000e+00 0.000000e+00 
0.000000e+00 0.000000e+00 0.000000e+00 
0.000000e+00 0.000000e+00 0.000000e+00 
0.000000e+00 0.000000e+00 0.000000e+00 
0.000000e+00 0.000000e+00 0.000000e+00 
0.000000e+00 0.000000e+00 0.000000e+00 
0.000000e+00 0.000000e+00 0.000000e+00 
0.000000e+00 0.000000e+00 0.000000e+00 
0.000000e+00 0.000000e+00 0.000000e+00 
0.000000e+00 0.000000e+00 0.000000e+00 
0.000000e+00 0.000000e+00 0.000000e+00 
0.000000e+00 0.000000e+00 0.000000e+00 
0.000000e+00 0.000000e+00 0.000000e+00 
0.000000e+00 0.000000e+00 0.000000e+00 
0.000000e+00 0.000000e+00 0.000000e+00 
0.000000e+00 0.000000e+00 0.000000e+00 
0.000000e+00 0.000000e+00 0.000000e+00 
0.000000e+00 0.000000e+00 0.000000e+00 
0.000000e+00 0.000000e+00 0.000000e+00 
0.000000e+00 0.000000e+00 0.000000e+00 
0.000000e+00 0.000000e+00 0.000000e+00 
0.000000e+00 0.000000e+00 0.000000e+00 
0.000000e+00 0.000000e+00 0.000000e+00 
0.000000e+00 0.000000e+00 0.000000e+00 
0.000000e+00 0.000000e+00 0.000000e+00 
0.000000e+00 0.000000e+00 0.000000e+00 
0.000000e+00 0.000000e+00 0.000000e+00 
0.000000e+00 0.000000e+00 0.000000e+00 
0.000000e+00 0.000000e+00 0.000000e+00 
0.000000e+00 0.000000e+00 0.000000e+00 
0.000000e+00 0.000000e+00 0.000000e+00 
0.000000e+00 0.000000e+00 0.000000e+00 
0.000000e+00 0.000000e+00 0.000000e+00 
0.000000e+00 0.000000e+00 0.000000e+00 
0.000000e+00 0.000000e+00 0.000000e+00 
0.000000e+00 0.000000e+00 0.000000e+00 
0.000000e+00 0.000000e+00 0.000000e+00 
0.000000e+00 0.000000e+00 0.000000e+00 
0.000000e+00 0.000000e+00 0.000000e+00 
0.000000e+00 0.000000e+00 0.000000e+00 
0.000000e+00 0.000000e+00 0.000000e+00 
0.000000e+00 0.000000e+00 0.000000e+00 
0.000000e+00 0.000000e+00 0.000000e+00 
0.000000e+00 0.000000e+00 0.000000e+00 
0.000000e+00 0.000000e+00 0.000000e+00 
0.000000e+00 0.000000e+00 0.000000e+00 
0.000000e+00 0.000000e+00 0.000000e+00 
0.000000e+00 0.000000e+00 0.000000e+00 
0.000000e+00 0.000000e+00 0.000000e+00 
0.000000e+00 0.000000e+00 0.000000e+00 
0.000000e+00 0.000000e+00 0.000000e+00 
0.000000e+00 0.000000e+00 0.000000e+00 
0.000000e+00 0.000000e+00 0.000000e+00 
0.000000e+00 0.000000e+00 0.000000e+00 
0.000000e+00 0.000000e+00 0.000000e+00 
0.000000e+00 0.000000e+00 0.000000e+00 
0.000000e+00 0.000000e+00 0.000000e+00 
0.000000e+00 0.000000e+00 0.000000e+00 
0.000000e+00 0.000000e+00 0.000000e+00 
0.000000e+00 0.000000e+00 0.000000e+00 
0.000000e+00 0.000000e+00 0.000000e+00 
0.000000e+00 0.000000e+00 0.000000e+00 
0.000000e+00 0.000000e+00 0.000000e+00 
0.000000e+00 0.000000e+00 0.000000e+00 
0.000000e+00 0.000000e+00 0.000000e+00 
0.000000e+00 0.000000e+00 0.000000e+00 
0.000000e+00 0.000000e+00 0.000000e+00 
0.000000e+00 0.000000e+00 0.000000e+00 
0.000000e+00 0.000000e+00 0.000000e+00 
0.000000e+00 0.000000e+00 0.000000e+00 
0.000000e+00 0.000000e+00 0.000000e+00 
0.000000e+00 0.000000e+00 0.000000e+00 
0.000000e+00 0.000000e+00 0.000000e+00 
0.000000e+00 0.000000e+00 0.000000e+00 
0.000000e+00 0.000000e+00 0.000000e+00 
0.000000e+00 0.000000e+00 0.000000e+00 
0.000000e+00 0.000000e+00 0.000000e+00 
0.000000e+00 0.000000e+00 0.000000e+00 
0.000000e+00 0.000000e+00 0.000000e+00 
0.000000e+00 0.000000e+00 0.000000e+00 
0.000000e+00 0.000000e+00 0.000000e+00 
0.000000e+00 0.000000e+00 0.000000e+00 
0.000000e+00 0.000000e+00 0.000000e+00 
0.000000e+00 0.000000e+00 0.000000e+00 
0.000000e+00 0.000000e+00 0.000000e+00 
0.000000e+00 0.000000e+00 0.000000e+00 
0.000000e+00 0.000000e+00 0.000000e+00 
0.000000e+00 0.000000e+00 0.000000e+00 
0.000000e+00 0.000000e+00 0.000000e+00 
0.000000e+00 0.000000e+00 0.000000e+00 
0.000000e+00 0.000000e+00 0.000000e+00 
0.000000e+00 0.000000e+00 0.000000e+00 
0.000000e+00 0.000000e+00 0.000000e+00 
0.000000e+00 0.000000e+00 0.000000e+00 
0.000000e+00 0.000000e+00 0.000000e+00 
0.000000e+00 0.000000e+00 0.000000e+00 
0.000000e+00 0.000000e+00 0.000000e+00 
0.000000e+00 0.000000e+00 0.000000e+00 
0.000000e+00 0.000000e+00 0.000000e+00 
0.000000e+00 0.000000e+00 0.000000e+00 
0.000000e+00 0.000000e+00 0.000000e+00 
0.000000e+00 0.000000e+00 0.000000e+00 
0.000000e+00 0.000000e+00 0.000000e+00 
0.000000e+00 0.000000e+00 0.000000e+00 
0.000000e+00 0.000000e+00 0.000000e+00 
0.000000e+00 0.000000e+00 0.000000e+00 
0.000000e+00 0.000000e+00 0.000000e+00 
0.000000e+00 0.000000e+00 0.000000e+00 
0.000000e+00 0.000000e+00 0.000000e+00 
0.000000e+00 0.000000e+00 0.000000e+00 
0.000000e+00 0.000000e+00 0.000000e+00 