# vtk DataFile Version 3.1
*description-name of input file* step:2501 
ASCII
DATASET UNSTRUCTURED_GRID
POINTS 1605 FLOAT
-7.177803e-09 -5.513926e-09 -2.421112e-10
-7.880737e-09 -4.611539e-09 -6.633779e-10
-6.183069e-09 -4.812926e-09 -7.793171e-10
-7.762817e-09 -4.037325e-09 2.132474e-09
-5.590330e-09 -6.070376e-09 -8.574083e-11
1.204452e-08 6.866056e-09 -1.055788e-08
1.363210e-08 6.928760e-09 -1.112025e-08
1.274711e-08 5.686628e-09 -1.207809e-08
-6.391076e-09 -6.184809e-09 8.112608e-10
-6.239554e-09 -2.797300e-09 8.614454e-10
-4.529675e-09 -4.548348e-09 -1.097891e-09
-6.133309e-09 -2.786230e-09 -3.338263e-10
-5.517721e-09 -5.123721e-09 2.166643e-09
-5.974307e-09 -3.574934e-09 1.702098e-09
-5.218367e-09 -3.494159e-09 -1.551058e-09
-7.371468e-09 -4.196138e-09 3.161894e-09
-3.570829e-09 -5.642489e-09 6.572363e-11
-6.564431e-09 -1.025531e-09 5.954297e-11
-5.365295e-09 -1.440121e-09 -8.112754e-10
-3.749811e-09 -3.994712e-09 -3.223151e-09
-5.099541e-09 -2.545149e-09 -3.051811e-09
-3.946995e-09 -1.812599e-09 -4.008211e-09
-6.440900e-09 -2.358161e-09 2.319612e-09
-5.649806e-09 -2.242536e-10 -2.388445e-09
-6.149326e-09 4.758685e-10 -8.684675e-10
-3.502668e-09 -4.745401e-09 2.011150e-09
-7.366486e-09 -1.100380e-09 1.238130e-09
-5.924592e-09 -3.316677e-09 4.042613e-09
-4.114776e-09 -2.176829e-09 -3.201207e-10
-7.984935e-09 -1.998222e-09 3.139461e-09
-2.367604e-09 -4.455286e-09 -2.247157e-09
-2.807205e-09 -3.170718e-09 -4.069813e-09
-2.337428e-09 -4.265967e-09 -3.434214e-09
-3.547167e-09 -3.572947e-09 -6.865968e-10
-6.060966e-09 -2.226875e-09 4.118877e-09
-4.162517e-09 -7.808123e-10 -2.167047e-09
-5.789150e-09 -5.860576e-10 2.231691e-09
-4.684106e-09 -3.065943e-10 5.726892e-10
-2.863549e-09 -2.099357e-09 -2.025727e-09
-4.104256e-09 -3.965749e-09 3.735451e-09
-4.686982e-09 3.410211e-11 -6.219278e-10
-3.929621e-09 6.709410e-10 -5.123047e-09
-3.905993e-09 5.703584e-10 -2.955115e-09
-4.803707e-09 1.072767e-09 -3.584211e-09
-4.155593e-09 -2.481243e-09 2.189946e-09
-1.532502e-09 -3.172766e-09 -6.678866e-10
-4.589394e-09 2.449455e-09 -4.545114e-09
-2.734406e-09 -1.454400e-09 -3.242307e-09
-2.963500e-09 1.563553e-10 -2.637313e-09
-1.466969e-09 -1.806417e-09 -3.224275e-09
-3.335887e-09 4.249792e-10 -8.387080e-10
-3.187019e-09 -2.042745e-09 2.391748e-10
-3.532075e-09 1.270896e-10 -4.923740e-09
-1.743018e-09 -2.360670e-09 -1.677530e-09
-3.688112e-09 -6.512366e-10 8.342175e-09
-2.029771e-09 -1.878831e-09 7.491813e-09
-1.885704e-09 3.739648e-10 7.418064e-09
-1.525279e-09 7.816500e-10 -3.956652e-09
-5.838188e-09 -3.192366e-09 6.166069e-09
-4.478411e-09 2.380997e-09 -2.575413e-09
-3.746948e-09 -2.782046e-09 3.880960e-09
-4.429777e-09 -3.461463e-10 2.650441e-09
-3.881894e-09 -1.383620e-09 1.509143e-09
-5.539860e-09 2.315208e-09 -3.954347e-10
-5.207701e-09 8.070579e-10 1.080839e-09
-6.525401e-09 1.951173e-09 1.929406e-09
-4.927158e-09 -4.487495e-09 5.806629e-09
-4.680371e-09 -3.846982e-09 7.101264e-09
-6.299505e-09 -1.618280e-09 6.716277e-09
-1.941498e-09 1.842820e-09 2.091942e-09
-9.951796e-11 2.056465e-09 4.077994e-09
-1.055006e-09 2.052442e-09 7.624833e-10
-4.676792e-09 4.238526e-10 -8.578365e-10
-2.975864e-09 -4.316467e-09 5.396440e-09
1.073768e-09 3.743726e-10 3.632966e-09
1.005887e-09 1.072675e-09 4.236072e-09
-8.586560e-11 8.051023e-10 5.594690e-09
-5.632756e-09 3.167128e-09 1.348093e-09
-4.837848e-09 -1.517550e-09 5.506625e-09
-1.125585e-09 -1.173086e-10 -1.330384e-09
-4.720624e-09 -2.050685e-09 4.613806e-09
-3.465788e-09 3.506903e-10 8.292524e-10
-2.107750e-09 -4.964994e-10 -7.673778e-11
-5.781840e-09 2.290765e-09 4.048848e-09
-2.477165e-09 -5.143411e-09 3.505867e-09
-2.986182e-09 2.634088e-09 -3.941630e-09
-2.188361e-09 -3.631406e-09 2.590915e-09
-5.748903e-09 -5.978128e-10 5.341661e-09
-2.885168e-09 1.972222e-09 -2.089527e-09
-4.271932e-09 -9.257917e-11 4.839483e-09
-2.907023e-09 -2.950424e-09 5.179150e-09
-5.671846e-09 -7.272418e-10 4.071675e-09
-3.179085e-09 -1.104386e-09 4.250528e-09
-3.993646e-10 -1.364567e-09 2.202093e-10
-4.422683e-09 3.304442e-09 2.647972e-09
-3.570476e-09 2.784306e-09 -8.238446e-10
-1.979245e-10 -1.397351e-09 -3.297929e-09
1.934585e-10 -2.570428e-09 -2.553494e-09
-3.960000e-09 -2.384604e-09 8.017971e-09
-5.345025e-09 -1.500252e-09 7.637092e-09
-5.337791e-09 1.733771e-10 7.714217e-09
6.942450e-10 2.218604e-09 3.127343e-09
-3.804089e-09 1.395147e-09 8.670764e-10
-4.133439e-09 2.903890e-09 3.748333e-10
-6.482151e-09 1.086972e-09 4.779311e-09
-4.351502e-09 3.347920e-11 3.488731e-09
-3.716185e-09 -2.688066e-09 6.398484e-09
1.007878e-11 -1.183934e-10 -3.093761e-09
-1.393864e-09 -2.713682e-09 3.679093e-09
-5.080114e-09 1.387128e-09 6.707775e-09
-3.603214e-09 7.734769e-10 3.322869e-09
-4.249829e-09 2.326328e-09 5.485552e-09
-4.177898e-09 1.992770e-09 3.001381e-09
-3.034817e-10 -4.038168e-09 2.740160e-09
8.162165e-10 -3.640408e-09 4.466631e-09
-3.978751e-09 2.337281e-09 2.075697e-09
4.628751e-10 -1.809135e-09 -4.330037e-10
-4.246146e-09 2.835872e-09 4.118332e-09
1.441656e-09 -1.084068e-09 -3.427485e-09
-7.648313e-10 -3.977624e-09 6.278061e-09
-6.379379e-10 -4.649899e-10 1.271069e-09
-2.133168e-09 -3.303115e-09 6.369519e-09
-1.946752e-09 -2.290403e-09 5.593424e-09
-1.494399e-09 -3.012235e-10 2.646104e-09
-1.255188e-09 -1.773136e-09 4.425615e-09
-2.691980e-09 1.283573e-09 3.780128e-09
1.976299e-09 -1.158507e-09 -1.420745e-09
7.519451e-10 7.458509e-10 -1.427213e-09
1.415604e-09 -6.102495e-10 5.876491e-09
-3.214887e-09 1.180966e-09 5.959636e-09
8.965291e-10 4.826503e-10 -3.336719e-09
1.071464e-09 -4.659587e-09 3.130781e-09
-8.073829e-10 -7.525102e-10 4.002914e-09
1.097934e-09 -1.116478e-09 -9.554989e-11
5.561672e-10 -3.520372e-09 5.498021e-09
-3.034773e-09 8.063081e-10 7.289909e-09
-2.618644e-09 2.253258e-09 5.711043e-09
-1.128642e-09 -1.977070e-09 6.710729e-09
2.026660e-09 -4.638560e-09 3.749318e-09
2.041682e-09 -3.442708e-09 2.624449e-09
-3.294373e-10 -1.487451e-09 2.920206e-09
-3.150285e-10 -2.782705e-09 6.974071e-09
1.405194e-09 -1.680052e-09 1.805365e-09
1.984285e-09 -3.836502e-10 -2.406768e-09
-1.129988e-09 1.537621e-09 3.628626e-09
-8.045986e-10 -1.361662e-09 8.131948e-09
1.764429e-09 4.844763e-10 -1.283658e-10
2.590079e-09 -3.675984e-09 4.795553e-09
3.311464e-09 -4.045618e-09 3.575236e-09
1.890587e-09 1.123577e-09 -1.431518e-09
4.158773e-10 -2.334888e-09 6.516397e-09
-1.675047e-09 9.159526e-10 5.180199e-09
2.998538e-09 -4.500424e-10 1.017788e-09
2.555767e-09 4.567547e-10 -4.197476e-09
1.848964e-09 -2.764257e-09 5.120941e-09
3.787143e-09 -2.554494e-09 2.403337e-09
3.659043e-09 4.266522e-10 -2.297225e-09
2.767797e-09 2.406257e-09 -2.588883e-09
2.613601e-09 2.369589e-09 -4.239991e-09
3.458459e-09 1.102818e-09 -4.046892e-09
4.450036e-09 1.895390e-09 -5.486702e-09
1.251600e-09 -1.512699e-09 4.436096e-09
6.643096e-10 -6.752241e-10 7.545283e-09
2.765142e-09 -8.101986e-10 2.021439e-09
1.382824e-09 1.311592e-09 4.666710e-10
2.085786e-09 1.499791e-09 -3.309932e-10
4.597112e-09 1.641456e-09 -3.701954e-09
2.911028e-10 1.391036e-09 7.344009e-09
1.364725e-09 1.111908e-09 2.111776e-09
3.004479e-09 -2.168988e-09 3.519096e-09
2.219701e-09 4.701255e-11 3.363416e-09
3.598840e-09 -7.777042e-10 2.102497e-09
4.331999e-09 2.820858e-09 -3.664008e-09
3.107716e-09 7.164436e-10 -8.376740e-10
3.357233e-09 1.508218e-09 -2.034676e-09
4.809487e-09 2.733949e-09 -5.192793e-09
3.516577e-09 1.232189e-09 8.270213e-10
5.355030e-09 1.886781e-09 -5.967189e-09
5.240273e-09 1.670355e-09 -4.697304e-09
3.832750e-09 -7.846869e-11 7.012336e-11
3.133846e-09 1.172092e-09 2.543074e-09
6.658370e-09 1.548895e-09 -5.696049e-09
5.933423e-09 2.794143e-09 -4.175257e-09
7.577646e-09 3.028342e-09 -6.733244e-09
6.931845e-09 2.164402e-09 -4.928032e-09
7.410594e-09 2.117226e-09 -6.355160e-09
6.217732e-09 3.505803e-09 -5.195364e-09
7.235654e-09 3.274557e-09 -5.554746e-09
8.732387e-09 2.791971e-09 -5.667034e-09
8.655408e-09 2.877329e-09 -7.112429e-09
8.768550e-09 4.269832e-09 -6.677385e-09
9.847826e-09 2.952000e-09 -6.556607e-09
1.024137e-08 4.512215e-09 -7.762561e-09
1.022052e-08 5.124528e-09 -7.817285e-09
9.472023e-09 4.064643e-09 -5.776056e-09
1.114721e-08 4.590485e-09 -6.653893e-09
1.021355e-08 4.978839e-09 -6.218856e-09
1.104028e-08 5.031423e-09 -8.524826e-09
1.129004e-08 6.633259e-09 -7.677726e-09
1.134619e-08 5.422451e-09 -6.411526e-09
1.284627e-08 4.946233e-09 -8.140708e-09
1.145983e-08 6.482291e-09 -9.931295e-09
1.165394e-08 5.766537e-09 -1.033955e-08
1.121011e-08 5.971333e-09 -8.938520e-09
1.221221e-08 4.954355e-09 -8.965427e-09
1.157457e-08 5.933206e-09 -7.084519e-09
1.303765e-08 5.652416e-09 -8.122676e-09
1.338602e-08 4.980808e-09 -8.902628e-09
1.393817e-08 4.867118e-09 -1.066868e-08
1.183130e-08 6.741345e-09 -8.737519e-09
1.427107e-08 6.560973e-09 -1.045714e-08
1.422681e-08 6.273371e-09 -8.979193e-09
1.377770e-08 7.601936e-09 -9.218807e-09
1.988187e-09 1.311684e-09 -8.812557e-10
-4.320185e-09 -3.115793e-09 7.559618e-09
7.494120e-09 2.572784e-09 -6.544202e-09
7.406650e-09 3.151449e-09 -6.143995e-09
1.239581e-08 6.276342e-09 -1.131799e-08
2.449701e-09 1.271891e-09 6.468461e-10
-4.011434e-09 2.295407e-10 -7.303179e-10
7.984021e-09 3.033264e-09 -5.610890e-09
4.777062e-10 3.579062e-10 7.444646e-09
-1.868198e-10 3.142711e-10 -1.378798e-09
-2.913524e-09 -9.715009e-10 -2.331520e-09
8.116527e-09 2.952835e-09 -6.922836e-09
-4.641059e-09 1.726882e-09 -3.079812e-09
-5.866551e-09 1.379116e-09 1.505123e-09
-6.205037e-11 1.305148e-09 3.932349e-09
1.333602e-09 -1.061474e-09 5.156293e-09
1.023095e-08 4.818372e-09 -7.789923e-09
-4.484089e-09 -3.744436e-09 -2.387105e-09
-4.056095e-09 2.620585e-09 1.225265e-09
-3.326985e-09 -2.866235e-09 4.530055e-09
-6.079079e-09 2.559150e-09 1.638750e-09
1.124670e-08 5.006468e-09 -6.532709e-09
1.026186e-10 1.098069e-09 6.469350e-09
3.810119e-10 3.137288e-10 -2.260487e-09
4.531846e-10 1.564570e-09 4.157033e-09
-4.779236e-09 -1.784117e-09 5.060215e-09
-1.670308e-09 -2.502042e-09 4.636259e-09
-4.278061e-09 3.104166e-09 1.511403e-09
-2.137087e-09 -2.488567e-09 -3.647044e-09
1.318960e-08 6.307694e-09 -1.159917e-08
[...]
POINT_DATA 1605
VECTORS vector_force float
-8.074418e+00 -3.707206e+02 -4.004165e+00 
-1.712946e+02 -5.338830e+01 1.051806e+03 
-1.847255e+01 -2.246384e+02 2.075159e+02 
-1.342104e+03 -4.284859e+02 -3.116921e+02 
-1.141748e+02 -2.410069e+02 3.652136e+02 
-8.530873e+02 -8.013679e+02 -7.510202e+02 
-7.816012e+02 4.773623e+02 -1.214752e+02 
1.099242e+03 -1.107076e+03 -4.010924e+02 
-7.711571e+01 -1.904403e+01 2.725611e+02 
3.947621e+01 2.262823e+00 -1.950517e+02 
1.189764e+03 4.242535e+02 -2.305611e+02 
2.845122e+00 -3.719950e+01 4.839921e+01 
1.466022e+02 -1.813960e+02 8.070902e+01 
3.837889e+02 3.683682e+01 -5.042643e+02 
7.926686e+02 -1.989675e+02 6.894431e+02 
-8.834434e+01 -4.005615e+02 -2.968523e+02 
1.531994e+02 -4.141372e+02 -1.296367e+02 
-6.292613e+02 5.694478e+01 -8.482355e+02 
2.769555e+02 9.971785e+02 5.912080e+00 
4.101041e+01 8.276021e+01 9.008176e+01 
-3.825719e+02 3.885020e+02 5.302031e+02 
1.789097e+02 2.990093e+02 -3.294641e+01 
1.491551e+02 3.362711e+02 -9.559669e+01 
1.274763e+03 -3.117167e+02 8.708400e+02 
7.832731e+02 -6.500467e+02 2.052042e+02 
-6.273532e+01 7.530709e+02 1.017235e+02 
7.308495e+02 1.274958e+02 7.228172e+02 
1.842831e+01 -2.733758e+02 -3.941888e+02 
3.160784e+02 1.194770e+02 9.865747e+00 
-8.610296e+02 4.258381e+02 -2.144693e+02 
3.105709e+02 -4.747633e+02 -2.400989e+02 
-5.863889e+02 -2.221900e+02 -1.579000e+02 
-3.568280e+02 6.000922e+02 1.328632e+02 
2.203690e+02 -1.722663e+02 -2.937107e+02 
-5.926099e+02 3.459033e+02 -2.351150e+02 
-1.839817e+02 -5.166345e+02 -2.978051e+02 
3.222734e+02 1.237232e+03 -4.832439e+02 
4.276101e+02 3.925993e+02 -1.120776e+02 
4.499706e+02 1.240299e+01 3.247606e+02 
-5.665644e+02 6.563877e+01 6.216182e+02 
6.801367e+01 3.841176e+02 -3.735611e+02 
7.921281e+02 7.751952e+02 1.055969e+01 
-5.336671e+02 -4.591183e+02 -3.011088e+00 
9.280144e+02 -5.178963e+02 -4.613470e+02 
-1.459391e+02 8.926535e+02 5.307661e+02 
-7.834347e+02 -6.958269e+02 7.189971e+02 
-1.061644e+03 6.401143e+02 -1.093887e+01 
-1.974190e+02 -3.151643e+01 1.425805e+03 
-7.295342e+02 2.713715e+01 -1.008336e+03 
-5.610236e+02 -3.952233e+02 -2.195555e+02 
-4.303789e+02 -9.424821e+02 -1.367292e+03 
8.984581e+02 5.105698e+00 1.251324e+02 
1.025942e+03 2.097311e+01 -2.348405e+02 
6.671020e+02 1.995611e+02 1.677165e+02 
-3.119737e+02 -2.650749e+02 -2.144009e+02 
2.543569e+00 1.275872e+01 2.624639e+02 
-1.651151e+02 -7.944673e+00 -2.065486e+02 
2.828143e+02 -5.887249e+02 -4.196388e+02 
-3.321130e+02 5.370856e+02 6.505481e+02 
1.677947e+02 -3.059874e+02 -3.666396e+02 
1.481091e+02 6.578356e+01 -1.466889e+02 
4.025141e+02 6.612821e+02 -5.489986e+02 
-4.434278e+02 4.063876e+02 -2.022080e+02 
2.247265e+02 -8.992163e+01 -3.098819e+01 
-1.566098e+02 1.797560e+02 -3.710922e+02 
-6.941778e+02 8.331048e+02 -3.303973e+02 
-9.733128e+01 1.406728e+02 -6.754556e+02 
2.706054e+02 1.641182e+02 2.538454e+02 
1.920370e+01 3.743148e+02 -5.116248e+02 
2.146414e+02 6.884752e+02 1.732666e+02 
-4.262492e+02 2.043068e+02 -1.891643e+02 
2.234859e+02 8.659823e+02 -3.315791e+02 
2.344859e+02 -1.839140e+02 -3.271820e+02 
7.052745e+01 1.321713e+02 -4.046412e+01 
-5.672009e+01 1.439153e+02 -1.662349e+02 
-1.416201e+02 4.310051e+02 3.965901e+02 
-5.072503e+02 1.338001e+02 2.127700e+02 
-9.781247e+02 -2.027788e+02 3.570381e+02 
-2.455971e+02 2.646412e+02 -5.272396e+02 
-3.664685e+02 -5.372657e+00 -5.641079e+02 
-2.820632e+02 4.511965e+01 -7.413259e+02 
2.974725e+02 2.511931e+02 1.604506e+02 
1.947529e+02 -3.566679e+02 -7.817701e+02 
-8.244866e+02 -1.757740e+02 9.561684e+02 
-9.399799e+00 -5.748349e+02 9.992336e+02 
-4.908449e+01 -1.257611e+02 -6.622120e+02 
-1.610425e+02 -1.247438e+03 -2.613358e+02 
1.572486e+02 1.975560e+02 -1.646927e+02 
5.707914e+02 9.864021e+02 -1.038056e+03 
-5.430073e+01 6.511179e+02 6.815396e+01 
6.968493e+02 3.400698e+02 -4.733988e+02 
7.326270e+01 1.622141e+02 -1.139210e+03 
2.891049e+02 8.465000e+02 2.219074e+02 
7.587243e+02 4.709987e+02 -6.108881e+02 
-1.007807e+03 6.252497e+02 1.944020e+02 
7.069119e+02 8.019554e+02 -6.920235e+02 
-5.828873e+02 -5.069723e+02 -1.474647e+02 
-6.028321e+02 4.458208e+02 1.681876e+02 
-6.255875e+02 -4.457644e+02 -3.342037e+02 
-5.199268e+01 4.760421e+02 -5.755352e+02 
5.657420e+02 7.600401e+02 -5.919845e+02 
-1.202876e+02 3.882369e+02 1.161204e+02 
-1.820697e+02 -3.969119e+02 4.545450e+02 
-2.296981e+02 -3.924025e+01 -2.324317e+00 
3.536095e+02 5.916843e+01 1.554989e+02 
-5.220970e+02 4.525737e+02 5.160000e+01 
-4.856152e+02 7.210105e+02 -8.758679e+02 
-1.473484e+02 3.215651e+01 -1.647025e+02 
3.334965e+02 -2.525856e+02 -4.108153e+02 
5.507544e+01 1.049393e+03 1.419921e+02 
2.445181e+02 1.539965e+02 -1.452498e+02 
-5.291283e+01 -5.338121e+02 1.710486e+02 
-6.960573e+02 -1.907514e+02 -8.298025e+01 
5.233725e+02 -3.899184e+02 8.473751e+02 
7.138646e+01 -1.512256e+01 1.825365e+02 
-8.440207e+02 6.804402e+02 6.794043e+02 
3.598497e+02 2.346905e+02 3.303213e+02 
-2.307288e+02 2.808176e+02 4.134332e+02 
-1.339779e+02 -8.954724e+02 3.406534e+02 
-1.118310e+02 5.182832e+01 -1.020079e+02 
5.440715e+02 8.849035e+02 -3.668620e+02 
3.222059e+01 1.150614e+03 -4.263374e+02 
-1.320948e+02 2.981598e+02 -5.433960e+01 
2.298222e+02 5.072469e+02 -2.969184e+01 
-2.193097e+02 -8.662933e+01 -2.113433e+02 
-4.397504e+02 3.377608e+02 -4.868908e+02 
-3.032434e+02 1.034712e+03 -1.829256e+02 
-5.881194e+01 8.131228e+02 -3.327521e+02 
4.621066e+02 3.308658e+02 -2.608436e+02 
5.713742e+02 -2.779844e+01 7.045375e+02 
-5.413731e+01 -8.918809e+02 -1.034668e+03 
1.260415e+03 -2.358611e+02 6.480034e+02 
-2.891324e+01 -1.903754e+02 -5.584602e+02 
7.637208e+02 2.938961e+02 -8.101617e+02 
8.789766e+02 -3.734083e+02 -5.999875e+01 
7.793238e+01 -3.527567e+02 2.519699e+02 
7.002579e+01 2.500538e+02 1.845697e+02 
2.526582e+02 5.049215e+02 7.747805e+01 
9.198771e+02 1.084171e+03 5.049882e+02 
3.147045e+02 -3.655883e+02 1.654471e+02 
-3.005728e+02 8.866048e+01 1.524689e+02 
-5.748092e+01 -2.932666e+01 1.025888e+03 
-7.761527e+02 -4.108967e+02 1.901737e+02 
-1.734401e+02 -6.731984e+01 1.110304e+02 
-3.721439e+02 7.067280e+02 -6.986051e+02 
-3.283860e+02 -2.187289e+02 1.092702e+02 
-6.476953e+01 2.371148e+02 3.221477e+02 
-5.695871e+02 1.955433e+01 6.370594e+02 
1.246814e+03 9.652461e+02 7.209505e+02 
7.477373e+02 1.064534e+02 -5.579810e+02 
6.143907e+02 4.218846e+02 -1.484660e+02 
4.750573e+02 3.708421e+02 3.183762e+01 
-1.563822e+02 6.143941e+02 3.519402e+02 
4.633268e+02 6.774074e+01 -4.444106e+02 
-2.557927e+01 -1.788544e+02 1.005048e+03 
4.221914e+02 -1.282794e+03 -9.761298e+01 
4.344925e+02 -1.161906e+02 -9.658006e+02 
-3.591883e+02 -4.047865e+02 -1.076212e+03 
-9.732076e+02 -1.033153e+03 -3.733683e+02 
-7.596021e+01 -4.095318e+02 -6.078568e+02 
9.148360e+02 -9.624248e+01 4.921715e+02 
-2.206255e+02 -7.648276e+02 -2.868324e+02 
-1.918512e+02 -5.292169e+00 -4.168779e+02 
-2.350437e+02 2.296519e+02 2.380229e+01 
-3.775317e+02 2.576755e+02 1.716745e+02 
-6.907009e+02 -2.498340e+02 -4.326382e+02 
3.229094e+02 -1.332386e+02 -3.106544e+02 
6.355011e+02 -3.207984e+02 -7.319742e+02 
2.383138e+01 -7.120400e+02 -2.312564e+02 
6.833348e+01 -1.498197e+02 -1.053597e+02 
-7.035686e+02 -2.900884e+02 4.183169e+02 
1.362964e+02 -2.438805e+02 -5.105009e+02 
3.757565e+02 2.427362e+02 -1.808470e+02 
-4.007764e+02 4.040585e+02 3.516964e+01 
5.143481e+02 1.476530e+02 -1.363071e+03 
5.729450e+02 -6.239921e+02 3.514172e+01 
-2.220963e+02 1.229698e+03 -6.966512e+02 
-6.523275e+01 -7.984325e+02 -3.095240e+02 
-1.252585e+02 -3.982955e+02 8.885681e+02 
-4.635513e+02 5.033542e+02 -7.480108e+01 
3.256987e+02 -5.864240e+02 -3.688238e+02 
8.221934e+01 -1.184054e+03 -1.825068e+02 
-6.257266e+02 -1.278346e+03 4.321898e+02 
-6.041340e+02 -1.544757e+01 8.072533e+02 
2.703544e+02 -4.148011e+02 -5.903115e+02 
-4.543737e+02 -3.810857e+02 4.679951e+02 
-7.517842e+02 -9.880292e+02 5.451652e+02 
3.089697e+02 1.969013e+02 -2.107669e+01 
-1.013838e+03 3.713409e+02 5.810755e+02 
7.731594e+02 -3.868323e+02 4.504288e+02 
6.960235e+02 -2.456231e+02 8.406325e+01 
1.300562e+02 -6.723222e+02 4.369738e+01 
-2.302122e+02 -3.118508e+02 8.781206e+01 
1.207519e+02 -1.137038e+03 -2.692260e+02 
1.997286e+02 3.079721e+01 -5.757198e+02 
6.982451e+02 9.975703e+02 6.071522e+02 
3.455750e+02 -5.372020e+01 -2.941188e+02 
4.247626e+02 -6.309769e+02 -4.409702e+02 
-6.162348e+02 2.084502e+02 -7.474456e+02 
1.929237e+02 3.230516e+02 1.023792e+02 
5.437846e+01 -4.220967e+02 1.153793e+03 
1.107669e+03 -1.023343e+03 -3.812561e+02 
7.287366e+02 -1.185045e+03 -2.323617e+02 
-3.461345e+01 -2.932154e+02 1.381227e+02 
3.309653e+02 1.906381e+02 9.809234e+02 
-7.426624e+02 3.001407e+02 -5.165533e+02 
1.470942e+02 -7.649911e+01 5.897000e+02 
-3.225196e+01 5.572986e+02 6.533547e+02 
1.172950e+03 -1.535990e+01 8.420244e+02 
7.615915e+02 1.449296e+02 -2.881230e+02 
7.409334e+01 5.095676e+02 -4.196865e+02 
2.809465e+02 3.639943e+02 -1.485262e+02 
1.631833e+01 -2.633268e+02 -1.645500e+02 
0.000000e+00 0.000000e+00 0.000000e+00 
0.000000e+00 0.000000e+00 0.000000e+00 
0.000000e+00 0.000000e+00 0.000000e+00 
0.000000e+00 0.000000e+00 0.000000e+00 
0.000000e+00 0.000000e+00 0.000000e+00 
0.000000e+00 0.000000e+00 0.000000e+00 
0.000000e+00 0.000000e+00 0.000000e+00 
0.000000e+00 0.000000e+00 0.000000e+00 
0.000000e+00 0.000000e+00 0.000000e+00 
0.000000e+00 0.000000e+00 0.000000e+00 
0.000000e+00 0.000000e+00 0.000000e+00 
0.000000e+00 0.000000e+00 0.000000e+00 
0.000000e+00 0.000000e+00 0.000000e+00 
0.000000e+00 0.000000e+00 0.000000e+00 
0.000000e+00 0.000000e+00 0.000000e+00 
0.000000e+00 0.000000e+00 0.000000e+00 
0.000000e+00 0.000000e+00 0.000000e+00 
0.000000e+00 0.000000e+00 0.000000e+00 
0.000000e+00 0.000000e+00 0.000000e+00 
0.000000e+00 0.000000e+00 0.000000e+00 
0.000000e+00 0.000000e+00 0.000000e+00 
0.000000e+00 0.000000e+00 0.000000e+00 
0.000000e+00 0.000000e+00 0.000000e+00 
0.000000e+00 0.000000e+00 0.000000e+00 
0.000000e+00 0.000000e+00 0.000000e+00 
0.000000e+00 0.000000e+00 0.000000e+00 
0.000000e+00 0.000000e+00 0.000000e+00 
0.000000e+00 0.000000e+00 0.000000e+00 
0.000000e+00 0.000000e+00 0.000000e+00 
0.000000e+00 0.000000e+00 0.000000e+00 
0.000000e+00 0.000000e+00 0.000000e+00 
0.000000e+00 0.000000e+00 0.000000e+00 
0.000000e+00 0.000000e+00 0.000000e+00 
0.000000e+00 0.000000e+00 0.000000e+00 
0.000000e+00 0.000000e+00 0.000000e+00 
0.000000e+00 0.000000e+00 0.000000e+00 
0.000000e+00 0.000000e+00 0.000000e+00 
0.000000e+00 0.000000e+00 0.000000e+00 
0.000000e+00 0.000000e+00 0.000000e+00 
0.000000e+00 0.000000e+00 0.000000e+00 
0.000000e+00 0.000000e+00 0.000000e+00 
0.000000e+00 0.000000e+00 0.000000e+00 
0.000000e+00 0.000000e+00 0.000000e+00 
0.000000e+00 0.000000e+00 0.000000e+00 
0.000000e+00 0.000000e+00 0.000000e+00 
0.000000e+00 0.000000e+00 0.000000e+00 
0.000000e+00 0.000000e+00 0.000000e+00 
0.000000e+00 0.000000e+00 0.000000e+00 
0.000000e+00 0.000000e+00 0.000000e+00 
0.000000e+00 0.000000e+00 0.000000e+00 
0.000000e+00 0.000000e+00 0.000000e+00 
0.000000e+00 0.000000e+00 0.000000e+00 
0.000000e+00 0.000000e+00 0.000000e+00 
0.000000e+00 0.000000e+00 0.000000e+00 
0.000000e+00 0.000000e+00 0.000000e+00 
0.000000e+00 0.000000e+00 0.000000e+00 
0.000000e+00 0.000000e+00 0.000000e+00 
0.000000e+00 0.000000e+00 0.000000e+00 
0.000000e+00 0.000000e+00 0.000000e+00 
0.000000e+00 0.000000e+00 0.000000e+00 
0.000000e+00 0.000000e+00 0.000000e+00 
0.000000e+00 0.000000e+00 0.000000e+00 
0.000000e+00 0.000000e+00 0.000000e+00 
0.000000e+00 0.000000e+00 0.000000e+00 
0.000000e+00 0.000000e+00 0.000000e+00 
0.000000e+00 0.000000e+00 0.000000e+00 
0.000000e+00 0.000000e+00 0.000000e+00 
0.000000e+00 0.000000e+00 0.000000e+00 
0.000000e+00 0.000000e+00 0.000000e+00 
0.000000e+00 0.000000e+00 0.000000e+00 
0.000000e+00 0.000000e+00 0.000000e+00 
0.000000e+00 0.000000e+00 0.000000e+00 
0.000000e+00 0.000000e+00 0.000000e+00 
0.000000e+00 0.000000e+00 0.000000e+00 
0.000000e+00 0.000000e+00 0.000000e+00 
0.000000e+00 0.000000e+00 0.000000e+00 
0.000000e+00 0.000000e+00 0.000000e+00 
0.000000e+00 0.000000e+00 0.000000e+00 
0.000000e+00 0.000000e+00 0.000000e+00 
0.000000e+00 0.000000e+00 0.000000e+00 
0.000000e+00 0.000000e+00 0.000000e+00 
0.000000e+00 0.000000e+00 0.000000e+00 
0.000000e+00 0.000000e+00 0.000000e+00 
0.000000e+00 0.000000e+00 0.000000e+00 
0.000000e+00 0.000000e+00 0.000000e+00 
0.000000e+00 0.000000e+00 0.000000e+00 
0.000000e+00 0.000000e+00 0.000000e+00 
0.000000e+00 0.000000e+00 0.000000e+00 
0.000000e+00 0.000000e+00 0.000000e+00 
0.000000e+00 0.000000e+00 0.000000e+00 
0.000000e+00 0.000000e+00 0.000000e+00 
0.000000e+00 0.000000e+00 0.000000e+00 
0.000000e+00 0.000000e+00 0.000000e+00 
0.000000e+00 0.000000e+00 0.000000e+00 
0.000000e+00 0.000000e+00 0.000000e+00 
0.000000e+00 0.000000e+00 0.000000e+00 
0.000000e+00 0.000000e+00 0.000000e+00 
0.000000e+00 0.000000e+00 0.000000e+00 
0.000000e+00 0.000000e+00 0.000000e+00 
0.000000e+00 0.000000e+00 0.000000e+00 
0.000000e+00 0.000000e+00 0.000000e+00 
0.000000e+00 0.000000e+00 0.000000e+00 
0.000000e+00 0.000000e+00 0.000000e+00 
0.000000e+00 0.000000e+00 0.000000e+00 
0.000000e+00 0.000000e+00 0.000000e+00 
0.000000e+00 0.000000e+00 0.000000e+00 
0.000000e+00 0.000000e+00 0.000000e+00 
0.000000e+00 0.000000e+00 0.000000e+00 
0.000000e+00 0.000000e+00 0.000000e+00 
0.000000e+00 0.000000e+00 0.000000e+00 
0.000000e+00 0.000000e+00 0.000000e+00 
0.000000e+00 0.000000e+00 0.000000e+00 
0.000000e+00 0.000000e+00 0.000000e+00 
0.000000e+00 0.000000e+00 0.000000e+00 
0.000000e+00 0.000000e+00 0.000000e+00 
0.000000e+00 0.000000e+00 0.000000e+00 
0.000000e+00 0.000000e+00 0.000000e+00 
0.000000e+00 0.000000e+00 0.000000e+00 
0.000000e+00 0.000000e+00 0.000000e+00 
0.000000e+00 0.000000e+00 0.000000e+00 
0.000000e+00 0.000000e+00 0.000000e+00 
0.000000e+00 0.000000e+00 0.000000e+00 
0.000000e+00 0.000000e+00 0.000000e+00 
0.000000e+00 0.000000e+00 0.000000e+00 
0.000000e+00 0.000000e+00 0.000000e+00 
0.000000e+00 0.000000e+00 0.000000e+00 
0.000000e+00 0.000000e+00 0.000000e+00 
0.000000e+00 0.000000e+00 0.000000e+00 
0.000000e+00 0.000000e+00 0.000000e+00 
0.000000e+00 0.000000e+00 0.000000e+00 
0.000000e+00 0.000000e+00 0.000000e+00 
0.000000e+00 0.000000e+00 0.000000e+00 
0.000000e+00 0.000000e+00 0.000000e+00 
0.000000e+00 0.000000e+00 0.000000e+00 
0.000000e+00 0.000000e+00 0.000000e+00 
0.000000e+00 0.000000e+00 0.000000e+00 
0.000000e+00 0.000000e+00 0.000000e+00 
0.000000e+00 0.000000e+00 0.000000e+00 
0.000000e+00 0.000000e+00 0.000000e+00 
0.000000e+00 0.000000e+00 0.000000e+00 
0.000000e+00 0.000000e+00 0.000000e+00 
0.000000e+00 0.000000e+00 0.000000e+00 
0.000000e+00 0.000000e+00 0.000000e+00 
0.000000e+00 0.000000e+00 0.000000e+00 
0.000000e+00 0.000000e+00 0.000000e+00 
0.000000e+00 0.000000e+00 0.000000e+00 
0.000000e+00 0.000000e+00 0.000000e+00 
0.000000e+00 0.000000e+00 0.000000e+00 
0.000000e+00 0.000000e+00 0.000000e+00 
0.000000e+00 0.000000e+00 0.000000e+00 
0.000000e+00 0.000000e+00 0.000000e+00 
0.000000e+00 0.000000e+00 0.000000e+00 
0.000000e+00 0.000000e+00 0.000000e+00 
0.000000e+00 0.000000e+00 0.000000e+00 
0.000000e+00 0.000000e+00 0.000000e+00 
0.000000e+00 0.000000e+00 0.000000e+00 
0.000000e+00 0.000000e+00 0.000000e+00 
0.000000e+00 0.000000e+00 0.000000e+00 
0.000000e+00 0.000000e+00 0.000000e+00 
0.000000e+00 0.000000e+00 0.000000e+00 
0.000000e+00 0.000000e+00 0.000000e+00 
0.000000e+00 0.000000e+00 0.000000e+00 
0.000000e+00 0.000000e+00 0.000000e+00 
0.000000e+00 0.000000e+00 0.000000e+00 
0.000000e+00 0.000000e+00 0.000000e+00 
0.000000e+00 0.000000e+00 0.000000e+00 
0.000000e+00 0.000000e+00 0.000000e+00 
0.000000e+00 0.000000e+00 0.000000e+00 
0.000000e+00 0.000000e+00 0.000000e+00 
0.000000e+00 0.000000e+00 0.000000e+00 
0.000000e+00 0.000000e+00 0.000000e+00 
0.000000e+00 0.000000e+00 0.000000e+00 
0.000000e+00 0.000000e+00 0.000000e+00 
0.000000e+00 0.000000e+00 0.000000e+00 
0.000000e+00 0.000000e+00 0.000000e+00 
0.000000e+00 0.000000e+00 0.000000e+00 
0.000000e+00 0.000000e+00 0.000000e+00 
0.000000e+00 0.000000e+00 0.000000e+00 
0.000000e+00 0.000000e+00 0.000000e+00 
0.000000e+00 0.000000e+00 0.000000e+00 
0.000000e+00 0.000000e+00 0.000000e+00 
0.000000e+00 0.000000e+00 0.000000e+00 
0.000000e+00 0.000000e+00 0.000000e+00 
0.000000e+00 0.000000e+00 0.000000e+00 
0.000000e+00 0.000000e+00 0.000000e+00 
0.000000e+00 0.000000e+00 0.000000e+00 
0.000000e+00 0.000000e+00 0.000000e+00 
0.000000e+00 0.000000e+00 0.000000e+00 
0.000000e+00 0.000000e+00 0.000000e+00 
0.000000e+00 0.000000e+00 0.000000e+00 
0.000000e+00 0.000000e+00 0.000000e+00 
0.000000e+00 0.000000e+00 0.000000e+00 
0.000000e+00 0.000000e+00 0.000000e+00 
0.000000e+00 0.000000e+00 0.000000e+00 
0.000000e+00 0.000000e+00 0.000000e+00 
0.000000e+00 0.000000e+00 0.000000e+00 
0.000000e+00 0.000000e+00 0.000000e+00 
0.000000e+00 0.000000e+00 0.000000e+00 
0.000000e+00 0.000000e+00 0.000000e+00 
0.000000e+00 0.000000e+00 0.000000e+00 
0.000000e+00 0.000000e+00 0.000000e+00 
0.000000e+00 0.000000e+00 0.000000e+00 
0.000000e+00 0.000000e+00 0.000000e+00 
0.000000e+00 0.000000e+00 0.000000e+00 
0.000000e+00 0.000000e+00 0.000000e+00 
0.000000e+00 0.000000e+00 0.000000e+00 
0.000000e+00 0.000000e+00 0.000000e+00 
0.000000e+00 0.000000e+00 0.000000e+00 
0.000000e+00 0.000000e+00 0.000000e+00 
0.000000e+00 0.000000e+00 0.000000e+00 
0.000000e+00 0.000000e+00 0.000000e+00 
0.000000e+00 0.000000e+00 0.000000e+00 
0.000000e+00 0.000000e+00 0.000000e+00 
0.000000e+00 0.000000e+00 0.000000e+00 
0.000000e+00 0.000000e+00 0.000000e+00 
0.000000e+00 0.000000e+00 0.000000e+00 
0.000000e+00 0.000000e+00 0.000000e+00 
0.000000e+00 0.000000e+00 0.000000e+00 
0.000000e+00 0.000000e+00 0.000000e+00 
0.000000e+00 0.000000e+00 0.000000e+00 
0.000000e+00 0.000000e+00 0.000000e+00 
0.000000e+00 0.000000e+00 0.000000e+00 
0.000000e+00 0.000000e+00 0.000000e+00 
0.000000e+00 0.000000e+00 0.000000e+00 
0.000000e+00 0.000000e+00 0.000000e+00 
0.000000e+00 0.000000e+00 0.000000e+00 
0.000000e+00 0.000000e+00 0.000000e+00 
0.000000e+00 0.000000e+00 0.000000e+00 
0.000000e+00 0.000000e+00 0.000000e+00 
0.000000e+00 0.000000e+00 0.000000e+00 
0.000000e+00 0.000000e+00 0.000000e+00 
0.000000e+00 0.000000e+00 0.000000e+00 
0.000000e+00 0.000000e+00 0.000000e+00 
0.000000e+00 0.000000e+00 0.000000e+00 
0.000000e+00 0.000000e+00 0.000000e+00 
0.000000e+00 0.000000e+00 0.000000e+00 
0.000000e+00 0.000000e+00 0.000000e+00 
0.000000e+00 0.000000e+00 0.000000e+00 
0.000000e+00 0.000000e+00 0.000000e+00 
0.000000e+00 0.000000e+00 0.000000e+00 
0.000000e+00 0.000000e+00 0.000000e+00 
0.000000e+00 0.000000e+00 0.000000e+00 
0.000000e+00 0.000000e+00 0.000000e+00 
0.000000e+00 0.000000e+00 0.000000e+00 
0.000000e+00 0.000000e+00 0.000000e+00 
0.000000e+00 0.000000e+00 0.000000e+00 
0.000000e+00 0.000000e+00 0.000000e+00 
0.000000e+00 0.000000e+00 0.000000e+00 
0.000000e+00 0.000000e+00 0.000000e+00 
0.000000e+00 0.000000e+00 0.000000e+00 
0.000000e+00 0.000000e+00 0.000000e+00 
0.000000e+00 0.000000e+00 0.000000e+00 
0.000000e+00 0.000000e+00 0.000000e+00 
0.000000e+00 0.000000e+00 0.000000e+00 
0.000000e+00 0.000000e+00 0.000000e+00 
0.000000e+00 0.000000e+00 0.000000e+00 
0.000000e+00 0.000000e+00 0.000000e+00 
0.000000e+00 0.000000e+00 0.000000e+00 
0.000000e+00 0.000000e+00 0.000000e+00 
0.000000e+00 0.000000e+00 0.000000e+00 
0.000000e+00 0.000000e+00 0.000000e+00 
0.000000e+00 0.000000e+00 0.000000e+00 
0.000000e+00 0.000000e+00 0.000000e+00 
0.000000e+00 0.000000e+00 0.000000e+00 
0.000000e+00 0.000000e+00 0.000000e+00 
0.000000e+00 0.000000e+00 0.000000e+00 
0.000000e+00 0.000000e+00 0.000000e+00 
0.000000e+00 0.000000e+00 0.000000e+00 
0.000000e+00 0.000000e+00 0.000000e+00 
0.000000e+00 0.000000e+00 0.000000e+00 
0.000000e+00 0.000000e+00 0.000000e+00 
0.000000e+00 0.000000e+00 0.000000e+00 
0.000000e+00 0.000000e+00 0.000000e+00 
0.000000e+00 0.000000e+00 0.000000e+00 
0.000000e+00 0.000000e+00 0.000000e+00 
0.000000e+00 0.000000e+00 0.000000e+00 
0.000000e+00 0.000000e+00 0.000000e+00 