# vtk DataFile Version 3.1
*description-name of input file* step:801 
ASCII
DATASET UNSTRUCTURED_GRID
POINTS 1605 FLOAT
-7.119523e-09 -5.856358e-09 -8.458063e-11
-7.556647e-09 -4.593360e-09 -7.335127e-10
-6.276193e-09 -4.975731e-09 -8.152818e-10
-7.763362e-09 -4.116366e-09 1.917035e-09
-5.367053e-09 -6.009334e-09 -1.670443e-10
1.226577e-08 7.141343e-09 -1.074630e-08
1.369784e-08 7.337672e-09 -1.076960e-08
1.296892e-08 5.960825e-09 -1.205535e-08
-6.006572e-09 -6.113922e-09 9.071145e-10
-6.298620e-09 -3.074284e-09 8.016737e-10
-4.336942e-09 -4.600035e-09 -1.150026e-09
-6.200444e-09 -2.865197e-09 -5.848635e-10
-5.469061e-09 -5.500672e-09 2.344449e-09
-5.906344e-09 -3.788823e-09 1.924540e-09
-5.097491e-09 -3.738866e-09 -1.560254e-09
-7.285487e-09 -4.244718e-09 3.208512e-09
-3.304769e-09 -5.388317e-09 2.940320e-10
-6.596056e-09 -1.241537e-09 1.253041e-10
-5.524400e-09 -1.478884e-09 -1.091971e-09
-3.903439e-09 -4.241357e-09 -3.563687e-09
-5.165777e-09 -2.777555e-09 -2.869795e-09
-4.066503e-09 -2.317962e-09 -4.027350e-09
-6.358950e-09 -2.653791e-09 2.398127e-09
-5.850680e-09 1.243208e-10 -2.439570e-09
-6.428940e-09 8.384806e-11 -1.080893e-09
-3.580577e-09 -4.641443e-09 1.845002e-09
-7.174543e-09 -1.688983e-09 1.200925e-09
-5.769646e-09 -3.807370e-09 4.206141e-09
-4.161839e-09 -2.012384e-09 -3.665725e-10
-7.679268e-09 -2.224346e-09 3.274900e-09
-2.425767e-09 -4.756765e-09 -2.216953e-09
-2.677227e-09 -3.051735e-09 -3.694445e-09
-2.124070e-09 -4.162794e-09 -3.197971e-09
-3.512817e-09 -3.465335e-09 -6.306031e-10
-5.881033e-09 -2.551471e-09 4.260274e-09
-4.234681e-09 -9.615963e-10 -2.315554e-09
-6.342652e-09 -5.798196e-10 2.028224e-09
-4.720869e-09 -3.674504e-10 3.888466e-10
-3.159534e-09 -1.957197e-09 -1.979696e-09
-4.102234e-09 -4.061001e-09 3.787110e-09
-5.010263e-09 2.852187e-10 -9.055244e-10
-3.992785e-09 9.333100e-10 -4.796755e-09
-4.010838e-09 4.035551e-10 -2.934425e-09
-4.963558e-09 1.145760e-09 -3.572512e-09
-4.194955e-09 -2.571209e-09 2.145213e-09
-1.659645e-09 -3.150739e-09 -6.286166e-10
-4.295373e-09 2.549582e-09 -4.086107e-09
-3.135572e-09 -1.650041e-09 -3.315245e-09
-3.276370e-09 -1.157105e-10 -2.974269e-09
-1.676749e-09 -1.649130e-09 -3.495293e-09
-3.524876e-09 4.067600e-10 -1.035795e-09
-3.037597e-09 -2.054723e-09 1.535893e-10
-3.324484e-09 1.007578e-10 -4.663438e-09
-1.850435e-09 -2.251022e-09 -1.851980e-09
-3.954319e-09 -4.252109e-10 8.229863e-09
-2.211546e-09 -1.744463e-09 7.548484e-09
-1.800413e-09 1.413876e-10 7.382923e-09
-1.458725e-09 4.078373e-10 -4.051941e-09
-5.830959e-09 -3.229522e-09 5.895171e-09
-4.181391e-09 2.302391e-09 -2.353729e-09
-3.634516e-09 -2.864426e-09 3.638915e-09
-4.429954e-09 -4.744046e-10 2.579425e-09
-3.886305e-09 -1.468216e-09 1.174537e-09
-5.374633e-09 2.229985e-09 -2.799394e-10
-4.740873e-09 7.461260e-10 1.298575e-09
-6.499811e-09 1.844106e-09 1.648283e-09
-4.528399e-09 -4.490166e-09 5.690461e-09
-4.745317e-09 -3.705259e-09 6.931470e-09
-6.065278e-09 -1.678555e-09 6.696244e-09
-1.963461e-09 1.758883e-09 1.986403e-09
5.054533e-11 2.412245e-09 3.675940e-09
-1.021284e-09 1.669131e-09 7.436849e-10
-4.642596e-09 6.971145e-10 -1.194862e-09
-3.139600e-09 -4.439925e-09 5.318568e-09
1.081207e-09 1.594361e-10 3.690462e-09
8.008415e-10 1.021937e-09 4.276876e-09
-6.201638e-11 7.009458e-10 5.609982e-09
-5.367910e-09 3.299474e-09 1.051012e-09
-4.816024e-09 -1.653617e-09 5.520913e-09
-1.133921e-09 2.770452e-11 -1.395561e-09
-4.450435e-09 -2.270644e-09 4.596681e-09
-3.379470e-09 1.822593e-10 4.989372e-10
-2.227372e-09 -4.853080e-10 -1.294753e-10
-5.855088e-09 2.550269e-09 3.904667e-09
-2.465591e-09 -5.092503e-09 3.591533e-09
-2.877589e-09 2.780160e-09 -3.261965e-09
-2.203459e-09 -3.716409e-09 2.603711e-09
-5.794395e-09 -4.511835e-10 5.440771e-09
-2.504787e-09 1.661016e-09 -2.162866e-09
-4.302704e-09 -8.881913e-12 4.806043e-09
-2.787906e-09 -2.860015e-09 4.883858e-09
-5.816690e-09 -5.921854e-10 4.207118e-09
-3.308563e-09 -9.960078e-10 4.205272e-09
-6.488858e-10 -1.442148e-09 1.293569e-10
-4.317829e-09 3.453330e-09 2.379935e-09
-3.300823e-09 2.871560e-09 -9.505291e-10
-4.434640e-10 -1.599823e-09 -3.307320e-09
2.235688e-10 -2.811023e-09 -2.676103e-09
-4.003182e-09 -2.414637e-09 7.858035e-09
-5.501022e-09 -1.377299e-09 7.876459e-09
-5.511260e-09 2.033820e-10 7.715343e-09
1.034729e-09 2.148702e-09 3.110120e-09
-3.459361e-09 1.212416e-09 8.343051e-10
-3.564919e-09 2.855574e-09 4.809067e-10
-6.374692e-09 1.410482e-09 4.907902e-09
-4.695889e-09 6.670077e-11 3.758546e-09
-3.697806e-09 -2.605186e-09 6.268504e-09
-7.424534e-11 -6.973981e-11 -3.277343e-09
-1.441761e-09 -2.738584e-09 3.579149e-09
-4.961852e-09 1.275865e-09 6.691550e-09
-3.556101e-09 7.060366e-10 3.371543e-09
-4.313021e-09 2.106768e-09 5.409243e-09
-4.271182e-09 1.745938e-09 3.144592e-09
-3.367313e-10 -3.885572e-09 2.604060e-09
8.081098e-10 -3.716795e-09 4.129662e-09
-3.955646e-09 2.251721e-09 1.762578e-09
3.126922e-10 -2.013233e-09 -6.850604e-10
-3.846724e-09 2.819493e-09 4.078840e-09
1.298172e-09 -1.092453e-09 -3.007693e-09
-7.002504e-10 -3.980534e-09 6.037866e-09
-7.535016e-10 -6.991127e-10 1.206876e-09
-2.250887e-09 -3.249556e-09 6.646183e-09
-1.821689e-09 -2.117475e-09 5.464127e-09
-1.560045e-09 -3.202221e-10 2.930042e-09
-1.392253e-09 -1.763925e-09 4.308779e-09
-2.504503e-09 1.313772e-09 3.732797e-09
1.556768e-09 -7.917999e-10 -1.337624e-09
4.976039e-10 7.900101e-10 -1.269638e-09
1.462743e-09 -5.867544e-10 5.999429e-09
-3.271170e-09 1.109147e-09 6.006088e-09
8.058550e-10 7.213534e-10 -3.102176e-09
1.013979e-09 -4.494416e-09 2.820371e-09
-8.085982e-10 -6.546507e-10 4.030965e-09
8.950161e-10 -1.133194e-09 -1.722805e-10
5.622181e-10 -3.720595e-09 5.444106e-09
-3.138289e-09 7.302310e-10 7.328687e-09
-2.629491e-09 2.147135e-09 5.564761e-09
-1.169844e-09 -1.825407e-09 6.567076e-09
2.203039e-09 -4.617438e-09 3.663712e-09
1.909117e-09 -3.670285e-09 2.272962e-09
-1.677589e-10 -1.507226e-09 2.773514e-09
-1.327945e-10 -2.886318e-09 6.768508e-09
1.346150e-09 -1.563614e-09 1.644753e-09
1.897203e-09 -1.189234e-10 -2.197170e-09
-9.150497e-10 1.658713e-09 3.548439e-09
-6.930263e-10 -1.475322e-09 7.962313e-09
1.565791e-09 4.601818e-10 -4.898051e-11
2.230343e-09 -3.455298e-09 4.715312e-09
2.877502e-09 -4.060734e-09 3.514604e-09
1.875689e-09 1.409581e-09 -1.204521e-09
4.868417e-10 -2.384349e-09 6.119985e-09
-1.756724e-09 6.014301e-10 5.197811e-09
2.886065e-09 -1.279428e-10 6.905713e-10
2.698276e-09 3.345112e-10 -3.881977e-09
1.655832e-09 -2.714628e-09 4.913718e-09
3.539450e-09 -2.847822e-09 2.382134e-09
3.255889e-09 7.321045e-10 -2.160277e-09
2.752524e-09 2.323590e-09 -2.392117e-09
2.797617e-09 2.044514e-09 -3.987671e-09
3.692659e-09 8.772659e-10 -3.927011e-09
4.103314e-09 1.540387e-09 -5.171525e-09
1.395626e-09 -1.501548e-09 4.310761e-09
7.263070e-10 -9.074128e-10 7.302519e-09
2.546325e-09 -6.241033e-10 1.971667e-09
1.148685e-09 1.501058e-09 5.921754e-10
2.212536e-09 1.722119e-09 -2.820469e-10
4.644186e-09 1.563695e-09 -3.416339e-09
2.424856e-10 1.337483e-09 7.436285e-09
1.430248e-09 1.167692e-09 1.970918e-09
2.762244e-09 -2.233840e-09 3.423991e-09
2.123563e-09 -3.253815e-10 3.394428e-09
3.674925e-09 -1.574954e-10 1.858586e-09
4.540329e-09 2.719542e-09 -3.424830e-09
3.136818e-09 8.040059e-10 -8.092252e-10
3.189140e-09 1.686644e-09 -1.591861e-09
4.808628e-09 2.561629e-09 -4.927541e-09
3.309911e-09 1.001074e-09 7.816802e-10
5.155582e-09 1.937924e-09 -5.911713e-09
5.447623e-09 1.610077e-09 -4.703046e-09
3.687019e-09 1.449730e-10 -2.271939e-10
3.122234e-09 8.294578e-10 2.599024e-09
6.291533e-09 1.398490e-09 -6.033524e-09
5.734961e-09 2.797675e-09 -3.934471e-09
7.065089e-09 3.019220e-09 -6.756592e-09
6.661588e-09 2.217447e-09 -4.998322e-09
7.281591e-09 2.178065e-09 -6.681067e-09
6.319325e-09 3.682572e-09 -4.572745e-09
7.580048e-09 3.479740e-09 -5.702648e-09
8.672486e-09 2.814091e-09 -5.917398e-09
8.433926e-09 3.094525e-09 -7.119510e-09
8.428096e-09 4.151880e-09 -7.017395e-09
9.377807e-09 3.220013e-09 -6.842711e-09
1.028585e-08 4.324578e-09 -7.771224e-09
1.020537e-08 4.822429e-09 -7.770541e-09
9.465520e-09 3.982362e-09 -6.156356e-09
1.104049e-08 4.027487e-09 -6.901104e-09
1.012366e-08 4.834864e-09 -6.510864e-09
1.142090e-08 5.029764e-09 -8.556679e-09
1.137796e-08 6.240926e-09 -7.735256e-09
1.120648e-08 5.398623e-09 -6.796903e-09
1.255939e-08 4.747268e-09 -8.410665e-09
1.127995e-08 6.658152e-09 -1.010359e-08
1.165658e-08 5.951749e-09 -1.050015e-08
1.121169e-08 5.968883e-09 -8.968503e-09
1.215709e-08 5.042052e-09 -9.103857e-09
1.174401e-08 5.824595e-09 -7.276950e-09
1.276152e-08 5.738742e-09 -8.046851e-09
1.336369e-08 5.020389e-09 -9.171711e-09
1.382729e-08 5.336948e-09 -1.063149e-08
1.212990e-08 7.006852e-09 -8.873945e-09
1.433040e-08 6.521304e-09 -1.013593e-08
1.367073e-08 6.199188e-09 -8.780290e-09
1.367934e-08 7.532995e-09 -9.235209e-09
2.044113e-09 1.565850e-09 -7.432840e-10
-4.374249e-09 -3.059948e-09 7.394753e-09
7.173340e-09 2.598642e-09 -6.718830e-09
7.322569e-09 3.249480e-09 -6.229620e-09
1.261735e-08 6.551084e-09 -1.140082e-08
2.229298e-09 1.251066e-09 6.869278e-10
-4.267570e-09 3.459894e-10 -9.706597e-10
8.126267e-09 3.146915e-09 -5.810023e-09
4.843963e-10 2.150353e-10 7.369402e-09
-3.181583e-10 4.088573e-10 -1.332600e-09
-3.217952e-09 -1.036454e-09 -2.476983e-09
7.749508e-09 3.056872e-09 -6.938051e-09
-4.572475e-09 1.724075e-09 -2.963120e-09
-5.620342e-09 1.295116e-09 1.473429e-09
-5.710411e-11 1.340325e-09 3.912657e-09
1.429184e-09 -1.044151e-09 5.155095e-09
1.024561e-08 4.573503e-09 -7.770883e-09
-4.500465e-09 -3.990112e-09 -2.561971e-09
-3.760283e-09 2.553647e-09 1.121742e-09
-3.211211e-09 -2.862220e-09 4.261387e-09
-5.933860e-09 2.571790e-09 1.349648e-09
1.112348e-08 4.713055e-09 -6.849003e-09
9.023460e-11 1.019215e-09 6.523134e-09
2.116793e-10 3.601351e-10 -2.273491e-09
4.256934e-10 1.717091e-09 3.976408e-09
-4.633229e-09 -1.962130e-09 5.058797e-09
-1.631725e-09 -2.428030e-09 4.521638e-09
-3.941374e-09 3.154452e-09 1.430421e-09
-2.176988e-09 -2.350433e-09 -3.594869e-09
1.333338e-08 6.649249e-09 -1.141248e-08
[...]
POINT_DATA 1605
VECTORS vector_force float
-7.886549e+02 4.070845e+02 -1.272424e+02 
1.602544e+02 -1.569190e+01 -1.147801e+03 
-7.206981e+01 3.371474e+02 6.976473e+01 
-7.076126e+01 -1.407584e+02 6.208219e+02 
6.215101e+02 -9.034580e+02 -7.110088e+02 
3.262766e+02 -3.200736e+02 8.002629e+02 
-2.633135e+02 2.909412e+02 5.355274e+02 
7.612196e+02 5.630406e+02 2.538713e+02 
5.854848e+02 -2.452298e+01 -2.728266e+02 
3.983346e+02 -4.684545e+02 -3.775210e+02 
-1.418977e+02 -4.623156e+02 -2.009321e+02 
1.953086e+02 -2.166234e+02 4.395271e+01 
4.093418e+02 -2.395668e+02 -4.783714e+02 
3.139059e+02 -2.426606e+02 -1.030322e+02 
2.683611e+01 -1.149644e+02 2.122730e+02 
-1.061609e+01 -4.700260e+02 -2.082860e+02 
5.101570e+02 -2.161165e+02 -1.195250e+03 
-7.702305e+01 -1.602151e+03 -4.927123e+02 
5.209797e+02 4.539889e+02 1.749271e+02 
-1.235163e+02 -3.186809e+02 -1.068984e+02 
5.363724e+02 -1.218073e+02 3.389340e+02 
-1.158572e+02 -7.927868e+02 -1.774944e+02 
-2.016434e+02 -5.662567e+01 -8.345939e+01 
-6.875933e+01 8.731722e+02 -8.055837e+02 
-3.126540e+01 -5.610600e+02 1.615208e+02 
3.692988e+02 -9.926390e+02 -5.972525e+02 
-8.477127e+01 -1.058842e+03 3.969996e+02 
-5.873067e+02 2.578452e+02 1.033369e+01 
2.803540e+02 3.746516e+02 9.975571e+01 
-2.111086e+02 5.317309e+02 4.890092e+02 
4.304345e+02 -6.605438e+02 -2.190135e+02 
3.037330e+01 -5.046732e+02 -5.869556e+02 
3.331809e+02 -4.751407e+02 -6.867089e+02 
-2.993870e+02 4.285197e+02 3.062022e+02 
3.776444e+02 4.254293e+02 7.509124e+01 
7.676398e+02 1.929439e+02 -4.900027e+02 
3.288012e+02 -1.114249e+03 3.605912e+02 
4.721670e+02 4.440188e+02 -1.898339e+02 
2.969719e+02 4.106694e+02 -8.535516e+00 
-1.929620e+02 -6.226692e+01 1.720223e+02 
-2.495179e+01 -2.891060e+02 -8.003740e+02 
-7.297503e+02 -8.720704e+00 4.523200e+02 
-1.983182e+02 3.002366e+02 3.670457e+02 
-4.919655e+02 -2.638652e+02 5.256662e+02 
4.221908e+01 1.853811e+02 5.081194e+02 
6.154013e+02 7.175100e+02 -4.631360e+02 
-1.227382e+02 7.866565e+02 -5.868461e+02 
1.049110e+03 -3.376799e+02 -4.247178e+02 
1.478485e+03 8.399926e+02 -7.874154e+02 
2.839582e+02 -7.277229e+02 -2.681214e+01 
9.115445e+02 -3.589321e+02 -2.345621e+02 
3.898144e+02 -1.611495e+02 2.557357e+02 
-5.474754e+02 -3.445693e+02 2.975053e+02 
4.881273e+02 -3.101470e+02 3.196065e+02 
8.775046e+02 -1.468955e+02 2.432423e+02 
4.556605e+02 -1.105028e+03 -7.757805e+02 
-1.085748e+02 -7.397394e+02 -4.133101e+02 
-1.855966e+02 -9.914475e+02 1.470561e+03 
1.398854e+02 3.822561e+02 5.261852e+01 
-3.949122e+02 1.967337e+02 -3.973908e+01 
3.452265e+02 -7.130773e+02 4.908900e+02 
-2.562913e+02 -3.229211e+02 4.670797e+02 
5.731449e+01 2.768591e+02 4.605962e+02 
-5.492488e+02 -3.778340e+02 -2.608423e+02 
-3.505249e+02 4.961747e+02 -1.355700e+02 
-3.808723e+02 2.384742e+02 -2.070850e+02 
-6.322799e+02 1.919993e+02 4.614066e+02 
8.552137e+02 3.070358e+02 -4.778788e+01 
-2.291673e+02 1.476671e+02 4.175445e+02 
6.556465e+01 -1.581448e+02 2.237107e+02 
7.194991e+02 7.460281e+02 5.090223e+02 
-8.212600e+02 3.508689e+01 -3.308272e+02 
-1.075398e+03 -6.460306e+02 -3.680711e+02 
-3.844363e+02 -2.162759e+02 -4.151510e+02 
8.952582e+02 4.308177e+02 -7.078002e+01 
3.780679e+02 1.706807e+02 3.111965e+02 
4.132734e+02 2.544142e+02 -4.193517e+02 
-3.452368e+02 -9.378114e+02 -1.724850e+02 
-4.495946e+02 4.369584e+01 2.218382e+02 
-1.280191e+02 -1.817978e+02 6.522944e+01 
-1.546077e+02 3.963750e+02 2.117812e+02 
8.728991e+02 -3.954652e+02 -4.798354e+02 
8.564033e+02 -4.978222e+01 -5.017285e+01 
-4.180278e+02 2.749967e+02 5.170863e+02 
1.239375e+02 2.158848e+02 -6.251595e+02 
9.994539e+02 -1.834422e+02 -3.438528e+02 
6.030744e+02 1.260752e+03 -3.603618e+02 
2.188819e+02 5.058489e+02 4.201562e+02 
-9.602398e+02 4.096130e+02 -2.054093e+02 
1.182479e+02 2.406551e+02 -2.999122e+02 
5.141341e+01 1.857031e+01 -3.474232e+02 
-1.308521e+02 2.580398e+02 8.056373e+02 
-2.557991e+02 1.147821e+03 -6.366824e+02 
-8.494031e+02 -6.367195e+01 3.626757e+02 
-3.946853e+02 -4.254798e+02 -3.652916e+01 
-7.003645e+02 -3.083342e+02 5.600833e+02 
7.849356e+00 1.030430e+02 1.253538e+02 
7.429703e+02 7.437881e+02 7.687056e+02 
-2.575554e+02 1.265905e+02 -9.188278e+01 
-3.066393e+02 7.123997e+02 1.720667e+02 
7.739697e+02 -1.983155e+02 2.050653e+02 
-6.663313e+02 -1.942631e+02 3.748088e+02 
-7.615447e+01 6.108322e+01 -4.216776e+01 
5.026341e+02 -8.952469e+02 5.862795e+00 
3.216016e+02 4.748218e+01 7.195995e+02 
2.534024e+02 -1.504416e+02 -4.271681e+02 
-1.535533e+02 7.422581e+01 -3.643627e+02 
-5.828184e+02 6.435488e+02 4.611902e+02 
-1.739448e+01 5.683628e+02 -2.777498e+02 
3.791584e+02 4.099032e+02 -1.958246e+02 
5.799467e+02 3.691622e+02 -5.011803e+02 
3.838994e+02 -4.400380e+02 -3.749579e+02 
-8.678051e+02 -4.753216e+02 4.437460e+02 
-1.038902e+02 6.777913e+02 2.014006e+01 
4.203572e+02 -7.877553e+01 4.574964e+02 
4.487154e+02 6.191994e+01 9.157913e+02 
8.544283e+01 3.145353e+02 -9.206273e+01 
3.012891e+01 1.097700e+03 -2.993664e+02 
5.805678e+02 5.808233e+02 -5.437682e+01 
1.446608e+01 -3.625285e+02 -4.373407e+02 
-4.048665e+02 2.132579e+02 4.087603e+02 
-4.784062e+02 1.877605e+02 -2.967444e+02 
-4.589309e+02 -1.544702e+02 -3.668410e+02 
-1.742711e+01 8.350073e+02 -2.018579e+02 
2.081867e+02 -2.770693e+01 -1.085809e+02 
-1.210291e+02 9.488027e+02 2.630132e+02 
-4.853046e+02 1.009662e+03 -4.186832e+02 
4.049107e+02 -1.465087e+01 -1.294365e+02 
-1.413316e+02 -4.469597e+02 -3.694846e+02 
-7.389002e+02 -1.005380e+02 1.300710e+02 
3.662001e+02 -2.126721e+02 5.985849e+01 
4.274343e+02 -3.642820e+02 -1.393722e+02 
3.626869e+02 1.702622e+02 1.496180e+02 
-5.206434e+02 3.297841e+02 -1.375118e+02 
-5.390557e+02 -2.619445e+02 4.306835e+02 
2.497156e+02 -9.163926e+02 -5.507351e+02 
-1.263838e+03 -4.312303e+02 1.910897e+03 
4.067833e+02 -5.867264e+02 -1.202714e+02 
1.996382e+02 4.188946e+02 -4.042511e+02 
2.722189e+02 -9.018203e+02 1.059717e+02 
7.779961e+02 1.872482e+02 1.675432e+02 
-1.578649e+02 -2.836329e+02 -1.546081e+02 
-2.622067e+02 2.130747e+02 2.100570e+02 
-4.768229e+02 -2.600450e+02 5.382512e+02 
6.406535e+02 4.755643e+02 1.135076e+03 
-4.905964e+02 -3.834387e+02 5.141560e+02 
-4.980944e+02 9.965355e+02 1.742175e+02 
5.744120e+02 4.550299e+02 -6.859265e+02 
-7.207646e+01 -3.440057e+02 -2.281903e+02 
1.582822e+02 3.857763e+02 4.003479e+02 
3.870866e+02 -1.918880e+02 -2.274031e+02 
-1.398493e+02 2.218431e+02 -6.109572e+02 
5.173507e+02 5.658928e+01 -4.541395e+02 
5.646573e+02 5.696295e+02 1.835637e+00 
7.250623e+02 1.360868e+02 -2.232721e+02 
2.209599e+02 -4.455127e+02 3.434184e+01 
3.714681e+01 -1.042400e+03 -4.692405e+02 
4.820056e+01 2.728135e+02 -3.588785e+02 
1.252685e+02 -4.584866e+02 -5.308259e+02 
5.006565e+02 2.273137e-01 2.014661e+01 
-1.188834e+03 3.169763e+02 1.116008e+02 
1.202824e+03 -2.449834e+02 1.584822e+02 
-4.512663e+02 -7.394163e+02 -5.265111e+02 
3.638162e+02 -3.528074e+02 -4.556841e+02 
1.029289e+02 7.669942e+02 -6.694078e+02 
7.496585e+02 5.984106e+02 -8.334998e+01 
5.807884e+02 -1.182912e+03 -7.134226e+02 
-1.806867e+03 2.237773e+02 -3.157332e+02 
4.884603e+02 2.281166e+02 -4.267327e+02 
-1.311059e+02 2.350997e+02 -1.403815e+02 
4.763813e+02 6.678949e+02 -3.889847e+02 
-1.582460e+02 -4.502653e+02 -1.530647e+03 
-1.151251e+02 -7.005266e+02 -2.582013e+02 
5.809167e+02 -2.990678e+02 1.067777e+02 
-5.590027e+02 -3.705838e+02 4.302154e+02 
9.250735e+00 8.617545e+01 2.071171e+01 
8.267199e+02 6.181084e+02 -6.424348e+02 
7.235760e+02 -5.496525e+02 3.242929e+02 
-3.979720e+02 -3.358985e+02 4.022985e+01 
1.023643e+03 -3.988984e+02 -4.269100e+02 
3.649218e+02 -8.741593e+02 -8.367223e+02 
-4.111355e+01 6.267874e+00 -1.140163e+03 
2.722761e+02 -6.774137e+02 9.506553e+01 
-1.065659e+02 6.380126e+01 2.850995e+02 
-4.644961e+02 -6.040673e+02 -2.524794e+02 
4.234915e+02 3.642905e+02 -2.853636e+02 
1.589219e+02 5.943477e+02 -6.315595e+02 
-4.736862e+02 6.208276e+02 -3.854854e+02 
-8.030988e+02 -5.962895e+02 3.863967e+02 
-8.800690e+02 3.481782e+02 5.596877e+01 
7.797160e+02 -4.333398e+02 -6.900896e+01 
1.136642e+03 -9.038211e+02 1.403516e+01 
2.003466e+02 -5.437472e+02 -2.906355e+02 
1.805316e+02 -5.629829e+02 3.027188e+02 
-2.451932e+00 3.285741e+02 8.460066e+01 
4.786977e+02 2.068351e+02 1.717704e+02 
-2.064952e+02 1.301861e+03 5.119505e+02 
2.733687e+01 -1.350482e+02 4.263462e+02 
-3.997910e+02 2.431103e+02 -3.130906e+02 
-2.957235e+02 1.009567e+02 3.304642e+02 
2.039654e+02 -3.648135e+02 7.860636e+02 
1.253926e+02 -5.292228e+02 1.619034e+03 
-4.928989e+02 1.624529e+02 2.586887e+02 
-3.639059e+02 -3.825296e+02 1.356914e+03 
-1.513427e+03 -3.555872e+01 2.368084e+02 
-6.663810e+02 -8.995546e+01 -1.170762e+02 
-9.294523e+02 -1.397137e+02 3.717159e+02 
-1.717995e+03 -7.680769e+02 -4.995836e+02 
1.934800e+02 -8.718850e+02 6.261931e+02 
-1.416642e+03 -4.119623e+02 7.312755e+02 
-2.418238e+02 -7.344122e+02 1.385428e+03 
-1.050669e+03 -2.783207e+02 6.999510e+02 
-3.783845e+02 -5.688052e+02 2.392088e+02 
0.000000e+00 0.000000e+00 0.000000e+00 
0.000000e+00 0.000000e+00 0.000000e+00 
0.000000e+00 0.000000e+00 0.000000e+00 
0.000000e+00 0.000000e+00 0.000000e+00 
0.000000e+00 0.000000e+00 0.000000e+00 
0.000000e+00 0.000000e+00 0.000000e+00 
0.000000e+00 0.000000e+00 0.000000e+00 
0.000000e+00 0.000000e+00 0.000000e+00 
0.000000e+00 0.000000e+00 0.000000e+00 
0.000000e+00 0.000000e+00 0.000000e+00 
0.000000e+00 0.000000e+00 0.000000e+00 
0.000000e+00 0.000000e+00 0.000000e+00 
0.000000e+00 0.000000e+00 0.000000e+00 
0.000000e+00 0.000000e+00 0.000000e+00 
0.000000e+00 0.000000e+00 0.000000e+00 
0.000000e+00 0.000000e+00 0.000000e+00 
0.000000e+00 0.000000e+00 0.000000e+00 
0.000000e+00 0.000000e+00 0.000000e+00 
0.000000e+00 0.000000e+00 0.000000e+00 
0.000000e+00 0.000000e+00 0.000000e+00 
0.000000e+00 0.000000e+00 0.000000e+00 
0.000000e+00 0.000000e+00 0.000000e+00 
0.000000e+00 0.000000e+00 0.000000e+00 
0.000000e+00 0.000000e+00 0.000000e+00 
0.000000e+00 0.000000e+00 0.000000e+00 
0.000000e+00 0.000000e+00 0.000000e+00 
0.000000e+00 0.000000e+00 0.000000e+00 
0.000000e+00 0.000000e+00 0.000000e+00 
0.000000e+00 0.000000e+00 0.000000e+00 
0.000000e+00 0.000000e+00 0.000000e+00 
0.000000e+00 0.000000e+00 0.000000e+00 
0.000000e+00 0.000000e+00 0.000000e+00 
0.000000e+00 0.000000e+00 0.000000e+00 
0.000000e+00 0.000000e+00 0.000000e+00 
0.000000e+00 0.000000e+00 0.000000e+00 
0.000000e+00 0.000000e+00 0.000000e+00 
0.000000e+00 0.000000e+00 0.000000e+00 
0.000000e+00 0.000000e+00 0.000000e+00 
0.000000e+00 0.000000e+00 0.000000e+00 
0.000000e+00 0.000000e+00 0.000000e+00 
0.000000e+00 0.000000e+00 0.000000e+00 
0.000000e+00 0.000000e+00 0.000000e+00 
0.000000e+00 0.000000e+00 0.000000e+00 
0.000000e+00 0.000000e+00 0.000000e+00 
0.000000e+00 0.000000e+00 0.000000e+00 
0.000000e+00 0.000000e+00 0.000000e+00 
0.000000e+00 0.000000e+00 0.000000e+00 
0.000000e+00 0.000000e+00 0.000000e+00 
0.000000e+00 0.000000e+00 0.000000e+00 
0.000000e+00 0.000000e+00 0.000000e+00 
0.000000e+00 0.000000e+00 0.000000e+00 
0.000000e+00 0.000000e+00 0.000000e+00 
0.000000e+00 0.000000e+00 0.000000e+00 
0.000000e+00 0.000000e+00 0.000000e+00 
0.000000e+00 0.000000e+00 0.000000e+00 
0.000000e+00 0.000000e+00 0.000000e+00 
0.000000e+00 0.000000e+00 0.000000e+00 
0.000000e+00 0.000000e+00 0.000000e+00 
0.000000e+00 0.000000e+00 0.000000e+00 
0.000000e+00 0.000000e+00 0.000000e+00 
0.000000e+00 0.000000e+00 0.000000e+00 
0.000000e+00 0.000000e+00 0.000000e+00 
0.000000e+00 0.000000e+00 0.000000e+00 
0.000000e+00 0.000000e+00 0.000000e+00 
0.000000e+00 0.000000e+00 0.000000e+00 
0.000000e+00 0.000000e+00 0.000000e+00 
0.000000e+00 0.000000e+00 0.000000e+00 
0.000000e+00 0.000000e+00 0.000000e+00 
0.000000e+00 0.000000e+00 0.000000e+00 
0.000000e+00 0.000000e+00 0.000000e+00 
0.000000e+00 0.000000e+00 0.000000e+00 
0.000000e+00 0.000000e+00 0.000000e+00 
0.000000e+00 0.000000e+00 0.000000e+00 
0.000000e+00 0.000000e+00 0.000000e+00 
0.000000e+00 0.000000e+00 0.000000e+00 
0.000000e+00 0.000000e+00 0.000000e+00 
0.000000e+00 0.000000e+00 0.000000e+00 
0.000000e+00 0.000000e+00 0.000000e+00 
0.000000e+00 0.000000e+00 0.000000e+00 
0.000000e+00 0.000000e+00 0.000000e+00 
0.000000e+00 0.000000e+00 0.000000e+00 
0.000000e+00 0.000000e+00 0.000000e+00 
0.000000e+00 0.000000e+00 0.000000e+00 
0.000000e+00 0.000000e+00 0.000000e+00 
0.000000e+00 0.000000e+00 0.000000e+00 
0.000000e+00 0.000000e+00 0.000000e+00 
0.000000e+00 0.000000e+00 0.000000e+00 
0.000000e+00 0.000000e+00 0.000000e+00 
0.000000e+00 0.000000e+00 0.000000e+00 
0.000000e+00 0.000000e+00 0.000000e+00 
0.000000e+00 0.000000e+00 0.000000e+00 
0.000000e+00 0.000000e+00 0.000000e+00 
0.000000e+00 0.000000e+00 0.000000e+00 
0.000000e+00 0.000000e+00 0.000000e+00 
0.000000e+00 0.000000e+00 0.000000e+00 
0.000000e+00 0.000000e+00 0.000000e+00 
0.000000e+00 0.000000e+00 0.000000e+00 
0.000000e+00 0.000000e+00 0.000000e+00 
0.000000e+00 0.000000e+00 0.000000e+00 
0.000000e+00 0.000000e+00 0.000000e+00 
0.000000e+00 0.000000e+00 0.000000e+00 
0.000000e+00 0.000000e+00 0.000000e+00 
0.000000e+00 0.000000e+00 0.000000e+00 
0.000000e+00 0.000000e+00 0.000000e+00 
0.000000e+00 0.000000e+00 0.000000e+00 
0.000000e+00 0.000000e+00 0.000000e+00 
0.000000e+00 0.000000e+00 0.000000e+00 
0.000000e+00 0.000000e+00 0.000000e+00 
0.000000e+00 0.000000e+00 0.000000e+00 
0.000000e+00 0.000000e+00 0.000000e+00 
0.000000e+00 0.000000e+00 0.000000e+00 
0.000000e+00 0.000000e+00 0.000000e+00 
0.000000e+00 0.000000e+00 0.000000e+00 
0.000000e+00 0.000000e+00 0.000000e+00 
0.000000e+00 0.000000e+00 0.000000e+00 
0.000000e+00 0.000000e+00 0.000000e+00 
0.000000e+00 0.000000e+00 0.000000e+00 
0.000000e+00 0.000000e+00 0.000000e+00 
0.000000e+00 0.000000e+00 0.000000e+00 
0.000000e+00 0.000000e+00 0.000000e+00 
0.000000e+00 0.000000e+00 0.000000e+00 
0.000000e+00 0.000000e+00 0.000000e+00 
0.000000e+00 0.000000e+00 0.000000e+00 
0.000000e+00 0.000000e+00 0.000000e+00 
0.000000e+00 0.000000e+00 0.000000e+00 
0.000000e+00 0.000000e+00 0.000000e+00 
0.000000e+00 0.000000e+00 0.000000e+00 
0.000000e+00 0.000000e+00 0.000000e+00 
0.000000e+00 0.000000e+00 0.000000e+00 
0.000000e+00 0.000000e+00 0.000000e+00 
0.000000e+00 0.000000e+00 0.000000e+00 
0.000000e+00 0.000000e+00 0.000000e+00 
0.000000e+00 0.000000e+00 0.000000e+00 
0.000000e+00 0.000000e+00 0.000000e+00 
0.000000e+00 0.000000e+00 0.000000e+00 
0.000000e+00 0.000000e+00 0.000000e+00 
0.000000e+00 0.000000e+00 0.000000e+00 
0.000000e+00 0.000000e+00 0.000000e+00 
0.000000e+00 0.000000e+00 0.000000e+00 
0.000000e+00 0.000000e+00 0.000000e+00 
0.000000e+00 0.000000e+00 0.000000e+00 
0.000000e+00 0.000000e+00 0.000000e+00 
0.000000e+00 0.000000e+00 0.000000e+00 
0.000000e+00 0.000000e+00 0.000000e+00 
0.000000e+00 0.000000e+00 0.000000e+00 
0.000000e+00 0.000000e+00 0.000000e+00 
0.000000e+00 0.000000e+00 0.000000e+00 
0.000000e+00 0.000000e+00 0.000000e+00 
0.000000e+00 0.000000e+00 0.000000e+00 
0.000000e+00 0.000000e+00 0.000000e+00 
0.000000e+00 0.000000e+00 0.000000e+00 
0.000000e+00 0.000000e+00 0.000000e+00 
0.000000e+00 0.000000e+00 0.000000e+00 
0.000000e+00 0.000000e+00 0.000000e+00 
0.000000e+00 0.000000e+00 0.000000e+00 
0.000000e+00 0.000000e+00 0.000000e+00 
0.000000e+00 0.000000e+00 0.000000e+00 
0.000000e+00 0.000000e+00 0.000000e+00 
0.000000e+00 0.000000e+00 0.000000e+00 
0.000000e+00 0.000000e+00 0.000000e+00 
0.000000e+00 0.000000e+00 0.000000e+00 
0.000000e+00 0.000000e+00 0.000000e+00 
0.000000e+00 0.000000e+00 0.000000e+00 
0.000000e+00 0.000000e+00 0.000000e+00 
0.000000e+00 0.000000e+00 0.000000e+00 
0.000000e+00 0.000000e+00 0.000000e+00 
0.000000e+00 0.000000e+00 0.000000e+00 
0.000000e+00 0.000000e+00 0.000000e+00 
0.000000e+00 0.000000e+00 0.000000e+00 
0.000000e+00 0.000000e+00 0.000000e+00 
0.000000e+00 0.000000e+00 0.000000e+00 
0.000000e+00 0.000000e+00 0.000000e+00 
0.000000e+00 0.000000e+00 0.000000e+00 
0.000000e+00 0.000000e+00 0.000000e+00 
0.000000e+00 0.000000e+00 0.000000e+00 
0.000000e+00 0.000000e+00 0.000000e+00 
0.000000e+00 0.000000e+00 0.000000e+00 
0.000000e+00 0.000000e+00 0.000000e+00 
0.000000e+00 0.000000e+00 0.000000e+00 
0.000000e+00 0.000000e+00 0.000000e+00 
0.000000e+00 0.000000e+00 0.000000e+00 
0.000000e+00 0.000000e+00 0.000000e+00 
0.000000e+00 0.000000e+00 0.000000e+00 
0.000000e+00 0.000000e+00 0.000000e+00 
0.000000e+00 0.000000e+00 0.000000e+00 
0.000000e+00 0.000000e+00 0.000000e+00 
0.000000e+00 0.000000e+00 0.000000e+00 
0.000000e+00 0.000000e+00 0.000000e+00 
0.000000e+00 0.000000e+00 0.000000e+00 
0.000000e+00 0.000000e+00 0.000000e+00 
0.000000e+00 0.000000e+00 0.000000e+00 
0.000000e+00 0.000000e+00 0.000000e+00 
0.000000e+00 0.000000e+00 0.000000e+00 
0.000000e+00 0.000000e+00 0.000000e+00 
0.000000e+00 0.000000e+00 0.000000e+00 
0.000000e+00 0.000000e+00 0.000000e+00 
0.000000e+00 0.000000e+00 0.000000e+00 
0.000000e+00 0.000000e+00 0.000000e+00 
0.000000e+00 0.000000e+00 0.000000e+00 
0.000000e+00 0.000000e+00 0.000000e+00 
0.000000e+00 0.000000e+00 0.000000e+00 
0.000000e+00 0.000000e+00 0.000000e+00 
0.000000e+00 0.000000e+00 0.000000e+00 
0.000000e+00 0.000000e+00 0.000000e+00 
0.000000e+00 0.000000e+00 0.000000e+00 
0.000000e+00 0.000000e+00 0.000000e+00 
0.000000e+00 0.000000e+00 0.000000e+00 
0.000000e+00 0.000000e+00 0.000000e+00 
0.000000e+00 0.000000e+00 0.000000e+00 
0.000000e+00 0.000000e+00 0.000000e+00 
0.000000e+00 0.000000e+00 0.000000e+00 
0.000000e+00 0.000000e+00 0.000000e+00 
0.000000e+00 0.000000e+00 0.000000e+00 
0.000000e+00 0.000000e+00 0.000000e+00 
0.000000e+00 0.000000e+00 0.000000e+00 
0.000000e+00 0.000000e+00 0.000000e+00 
0.000000e+00 0.000000e+00 0.000000e+00 
0.000000e+00 0.000000e+00 0.000000e+00 
0.000000e+00 0.000000e+00 0.000000e+00 
0.000000e+00 0.000000e+00 0.000000e+00 
0.000000e+00 0.000000e+00 0.000000e+00 
0.000000e+00 0.000000e+00 0.000000e+00 
0.000000e+00 0.000000e+00 0.000000e+00 
0.000000e+00 0.000000e+00 0.000000e+00 
0.000000e+00 0.000000e+00 0.000000e+00 
0.000000e+00 0.000000e+00 0.000000e+00 
0.000000e+00 0.000000e+00 0.000000e+00 
0.000000e+00 0.000000e+00 0.000000e+00 
0.000000e+00 0.000000e+00 0.000000e+00 
0.000000e+00 0.000000e+00 0.000000e+00 
0.000000e+00 0.000000e+00 0.000000e+00 
0.000000e+00 0.000000e+00 0.000000e+00 
0.000000e+00 0.000000e+00 0.000000e+00 
0.000000e+00 0.000000e+00 0.000000e+00 
0.000000e+00 0.000000e+00 0.000000e+00 
0.000000e+00 0.000000e+00 0.000000e+00 
0.000000e+00 0.000000e+00 0.000000e+00 
0.000000e+00 0.000000e+00 0.000000e+00 
0.000000e+00 0.000000e+00 0.000000e+00 
0.000000e+00 0.000000e+00 0.000000e+00 
0.000000e+00 0.000000e+00 0.000000e+00 
0.000000e+00 0.000000e+00 0.000000e+00 
0.000000e+00 0.000000e+00 0.000000e+00 
0.000000e+00 0.000000e+00 0.000000e+00 
0.000000e+00 0.000000e+00 0.000000e+00 
0.000000e+00 0.000000e+00 0.000000e+00 
0.000000e+00 0.000000e+00 0.000000e+00 
0.000000e+00 0.000000e+00 0.000000e+00 
0.000000e+00 0.000000e+00 0.000000e+00 
0.000000e+00 0.000000e+00 0.000000e+00 
0.000000e+00 0.000000e+00 0.000000e+00 
0.000000e+00 0.000000e+00 0.000000e+00 
0.000000e+00 0.000000e+00 0.000000e+00 
0.000000e+00 0.000000e+00 0.000000e+00 
0.000000e+00 0.000000e+00 0.000000e+00 
0.000000e+00 0.000000e+00 0.000000e+00 
0.000000e+00 0.000000e+00 0.000000e+00 
0.000000e+00 0.000000e+00 0.000000e+00 
0.000000e+00 0.000000e+00 0.000000e+00 
0.000000e+00 0.000000e+00 0.000000e+00 
0.000000e+00 0.000000e+00 0.000000e+00 
0.000000e+00 0.000000e+00 0.000000e+00 
0.000000e+00 0.000000e+00 0.000000e+00 
0.000000e+00 0.000000e+00 0.000000e+00 
0.000000e+00 0.000000e+00 0.000000e+00 
0.000000e+00 0.000000e+00 0.000000e+00 
0.000000e+00 0.000000e+00 0.000000e+00 
0.000000e+00 0.000000e+00 0.000000e+00 
0.000000e+00 0.000000e+00 0.000000e+00 
0.000000e+00 0.000000e+00 0.000000e+00 
0.000000e+00 0.000000e+00 0.000000e+00 
0.000000e+00 0.000000e+00 0.000000e+00 
0.000000e+00 0.000000e+00 0.000000e+00 
0.000000e+00 0.000000e+00 0.000000e+00 
0.000000e+00 0.000000e+00 0.000000e+00 
0.000000e+00 0.000000e+00 0.000000e+00 
0.000000e+00 0.000000e+00 0.000000e+00 