# vtk DataFile Version 3.1
*description-name of input file* step:2001 
ASCII
DATASET UNSTRUCTURED_GRID
POINTS 1605 FLOAT
-7.212460e-09 -5.443244e-09 -2.579122e-10
-7.850192e-09 -4.329852e-09 -6.100116e-10
-6.333794e-09 -4.754317e-09 -6.950792e-10
-7.712990e-09 -4.121069e-09 2.108769e-09
-5.518065e-09 -5.942156e-09 -1.463219e-10
1.201666e-08 6.911256e-09 -1.072880e-08
1.356206e-08 7.364557e-09 -1.082065e-08
1.280015e-08 5.917265e-09 -1.210849e-08
-6.370129e-09 -6.167026e-09 7.327434e-10
-6.377769e-09 -2.789807e-09 8.732923e-10
-4.492693e-09 -4.533936e-09 -1.104659e-09
-6.233783e-09 -2.763312e-09 -3.476086e-10
-5.601777e-09 -5.300770e-09 2.240287e-09
-6.010508e-09 -3.748231e-09 1.765941e-09
-5.192518e-09 -3.575052e-09 -1.701576e-09
-7.432829e-09 -4.354172e-09 3.138128e-09
-3.681155e-09 -5.428137e-09 -3.497719e-11
-6.486790e-09 -1.122486e-09 1.152045e-10
-5.465427e-09 -1.381774e-09 -8.270659e-10
-3.987463e-09 -3.910990e-09 -3.282412e-09
-5.229438e-09 -2.712193e-09 -2.957984e-09
-4.064423e-09 -1.948615e-09 -3.800269e-09
-6.453390e-09 -2.446158e-09 2.325030e-09
-5.647363e-09 8.026179e-11 -2.355708e-09
-6.435935e-09 4.181905e-10 -8.869860e-10
-3.600516e-09 -4.786720e-09 2.018095e-09
-7.220563e-09 -1.149649e-09 1.240626e-09
-5.875947e-09 -3.355936e-09 4.118451e-09
-4.159065e-09 -2.138856e-09 -4.169118e-10
-8.076255e-09 -2.283611e-09 3.152278e-09
-2.454173e-09 -4.456615e-09 -2.265030e-09
-2.885063e-09 -3.201049e-09 -3.880213e-09
-2.325414e-09 -4.232313e-09 -3.333905e-09
-3.544576e-09 -3.448668e-09 -5.540636e-10
-6.055136e-09 -2.386460e-09 4.182911e-09
-4.132457e-09 -8.455846e-10 -2.223543e-09
-5.833374e-09 -6.093059e-10 2.175899e-09
-4.594755e-09 -3.215112e-10 4.478537e-10
-2.875576e-09 -2.030219e-09 -2.004008e-09
-3.947374e-09 -3.978014e-09 3.646218e-09
-4.807655e-09 5.953743e-11 -6.606860e-10
-3.856195e-09 4.999916e-10 -5.086541e-09
-3.894809e-09 4.257003e-10 -2.842796e-09
-4.838587e-09 8.478041e-10 -3.709612e-09
-4.258736e-09 -2.543965e-09 2.140201e-09
-1.789856e-09 -3.263414e-09 -6.085369e-10
-4.453836e-09 2.312954e-09 -4.383677e-09
-2.745157e-09 -1.503401e-09 -3.087364e-09
-3.054821e-09 1.455530e-10 -2.551115e-09
-1.438563e-09 -1.892916e-09 -3.256675e-09
-3.277756e-09 3.434450e-10 -8.134581e-10
-3.084823e-09 -1.937762e-09 1.980976e-10
-3.365133e-09 -4.153602e-11 -4.890634e-09
-1.838431e-09 -2.412375e-09 -1.702267e-09
-3.761710e-09 -5.667500e-10 8.288046e-09
-2.242880e-09 -1.683218e-09 7.498406e-09
-1.785897e-09 3.912183e-10 7.266659e-09
-1.571642e-09 6.238795e-10 -3.968748e-09
-5.795642e-09 -3.143733e-09 6.118689e-09
-4.450449e-09 2.278113e-09 -2.664117e-09
-3.669612e-09 -2.779780e-09 3.785258e-09
-4.516566e-09 -2.979817e-10 2.674441e-09
-3.904972e-09 -1.438944e-09 1.424640e-09
-5.473033e-09 2.382084e-09 -3.771819e-10
-4.912617e-09 7.462784e-10 1.030696e-09
-6.571370e-09 1.891286e-09 1.938277e-09
-4.934336e-09 -4.620469e-09 5.832172e-09
-4.666600e-09 -3.799541e-09 7.015705e-09
-6.288464e-09 -1.634943e-09 6.737140e-09
-2.078128e-09 1.795368e-09 1.990019e-09
-8.418967e-11 2.158201e-09 3.938716e-09
-9.371473e-10 1.839448e-09 6.270520e-10
-4.549215e-09 5.549351e-10 -9.202586e-10
-2.957161e-09 -4.411252e-09 5.233672e-09
9.286423e-10 3.887857e-10 3.690235e-09
8.942479e-10 1.302434e-09 4.358792e-09
1.998598e-11 8.185006e-10 5.616644e-09
-5.548260e-09 3.200599e-09 1.415784e-09
-4.851051e-09 -1.616622e-09 5.423257e-09
-1.092815e-09 -1.526090e-10 -1.267443e-09
-4.604702e-09 -2.244213e-09 4.620111e-09
-3.404616e-09 1.725921e-10 6.964903e-10
-2.047444e-09 -5.338804e-10 4.585512e-11
-5.737911e-09 2.421062e-09 3.799028e-09
-2.321125e-09 -5.032345e-09 3.617367e-09
-2.999088e-09 2.533643e-09 -3.946571e-09
-2.348645e-09 -3.692743e-09 2.659917e-09
-5.712732e-09 -5.876983e-10 5.446814e-09
-2.813936e-09 1.781721e-09 -2.298428e-09
-4.182511e-09 -1.482004e-10 4.804352e-09
-2.850301e-09 -2.907777e-09 5.039308e-09
-5.732563e-09 -7.377255e-10 4.225373e-09
-3.351982e-09 -1.095402e-09 4.223583e-09
-3.904708e-10 -1.563183e-09 6.596415e-11
-4.319733e-09 3.368744e-09 2.400765e-09
-3.491228e-09 2.881288e-09 -8.627986e-10
-1.885041e-10 -1.399228e-09 -3.441928e-09
3.685188e-10 -2.765172e-09 -2.777166e-09
-3.953686e-09 -2.416459e-09 7.852799e-09
-5.351735e-09 -1.509919e-09 7.606017e-09
-5.213899e-09 1.925672e-10 7.812155e-09
7.712848e-10 2.210593e-09 3.191461e-09
-3.566235e-09 1.349994e-09 8.763566e-10
-3.974291e-09 3.008258e-09 2.861668e-10
-6.429720e-09 1.236579e-09 4.685805e-09
-4.342875e-09 -1.401941e-10 3.564212e-09
-3.699006e-09 -2.642609e-09 6.299906e-09
-7.464834e-11 -3.354848e-11 -3.212724e-09
-1.449352e-09 -2.729250e-09 3.614238e-09
-4.968808e-09 1.432107e-09 6.869259e-09
-3.588891e-09 7.943722e-10 3.217617e-09
-4.179682e-09 2.143370e-09 5.438335e-09
-4.168706e-09 1.942510e-09 2.973611e-09
-3.401125e-10 -3.964513e-09 2.694716e-09
8.008278e-10 -3.617088e-09 4.475761e-09
-3.988738e-09 2.280688e-09 2.009761e-09
4.822628e-10 -1.782513e-09 -5.571064e-10
-4.072990e-09 2.681755e-09 4.006950e-09
1.542973e-09 -9.604452e-10 -3.266216e-09
-8.069175e-10 -3.977141e-09 6.274621e-09
-6.405645e-10 -7.100072e-10 1.190433e-09
-2.279699e-09 -3.378116e-09 6.458429e-09
-1.937460e-09 -2.385103e-09 5.575973e-09
-1.671309e-09 -3.515506e-10 2.772357e-09
-1.347200e-09 -1.797165e-09 4.398531e-09
-2.717898e-09 1.305531e-09 3.668139e-09
1.679743e-09 -1.084482e-09 -1.453959e-09
6.954308e-10 7.378745e-10 -1.380212e-09
1.519557e-09 -5.919177e-10 5.758386e-09
-3.218389e-09 1.198788e-09 5.953131e-09
8.985323e-10 7.383174e-10 -3.274917e-09
9.165716e-10 -4.721708e-09 3.079287e-09
-8.737232e-10 -7.483341e-10 4.026705e-09
1.000158e-09 -1.118320e-09 -2.186894e-10
6.680994e-10 -3.450562e-09 5.540923e-09
-3.023141e-09 8.929036e-10 7.299978e-09
-2.382222e-09 2.287757e-09 5.773887e-09
-1.240504e-09 -1.954740e-09 6.694980e-09
2.151277e-09 -4.791935e-09 3.607401e-09
2.006094e-09 -3.719622e-09 2.521985e-09
-3.806340e-10 -1.526988e-09 2.900070e-09
-3.927429e-10 -2.595763e-09 7.133697e-09
1.407916e-09 -1.677130e-09 1.713933e-09
2.058595e-09 -2.431664e-10 -2.291893e-09
-1.013788e-09 1.576073e-09 3.611499e-09
-8.595774e-10 -1.139705e-09 8.076517e-09
1.818026e-09 4.842519e-10 -1.062679e-10
2.661088e-09 -3.602541e-09 4.788505e-09
3.164215e-09 -4.010949e-09 3.599799e-09
1.838481e-09 1.300775e-09 -1.273409e-09
5.068510e-10 -2.326679e-09 6.389192e-09
-1.668007e-09 8.024175e-10 5.156345e-09
2.816381e-09 -3.097461e-10 9.575965e-10
2.361902e-09 4.948942e-10 -4.169455e-09
1.795159e-09 -2.657972e-09 4.933712e-09
3.729309e-09 -2.716800e-09 2.445409e-09
3.562143e-09 3.377603e-10 -2.249529e-09
2.779986e-09 2.376525e-09 -2.617030e-09
2.766664e-09 2.445083e-09 -4.254156e-09
3.433510e-09 1.056885e-09 -4.124895e-09
4.435388e-09 1.762260e-09 -5.389845e-09
1.146263e-09 -1.473765e-09 4.222262e-09
5.514040e-10 -6.662467e-10 7.485767e-09
2.672296e-09 -7.924370e-10 1.981574e-09
1.370596e-09 1.389756e-09 6.261350e-10
2.031668e-09 1.398415e-09 -1.737566e-10
4.602924e-09 1.630930e-09 -3.752556e-09
3.042597e-10 1.430172e-09 7.376600e-09
1.397232e-09 1.084495e-09 2.185831e-09
3.006640e-09 -2.242258e-09 3.501364e-09
2.201573e-09 -3.207129e-11 3.407974e-09
3.590176e-09 -6.084105e-10 2.034370e-09
4.405364e-09 2.629378e-09 -3.722936e-09
3.194594e-09 8.970757e-10 -9.322789e-10
3.318553e-09 1.376827e-09 -1.966393e-09
4.841901e-09 2.712221e-09 -5.124430e-09
3.339626e-09 1.007154e-09 9.442567e-10
5.168524e-09 1.866946e-09 -6.017014e-09
5.355792e-09 1.636595e-09 -4.531523e-09
3.658615e-09 -9.929049e-11 8.996356e-11
3.101132e-09 1.042489e-09 2.792807e-09
6.450192e-09 1.358616e-09 -5.709338e-09
5.917553e-09 2.779843e-09 -4.152260e-09
7.309887e-09 2.991350e-09 -6.919892e-09
6.844652e-09 2.254682e-09 -5.083796e-09
7.344418e-09 1.971465e-09 -6.407304e-09
6.169936e-09 3.555409e-09 -5.007782e-09
7.289369e-09 3.234021e-09 -5.483643e-09
8.689998e-09 2.840148e-09 -5.887626e-09
8.405047e-09 2.732375e-09 -7.088434e-09
8.622752e-09 4.076468e-09 -6.672698e-09
9.522043e-09 2.987672e-09 -6.562256e-09
1.023090e-08 4.454740e-09 -7.774365e-09
1.017659e-08 5.031864e-09 -7.664615e-09
9.546909e-09 3.905171e-09 -5.903804e-09
1.108885e-08 4.463986e-09 -6.651812e-09
1.024732e-08 4.822136e-09 -6.079650e-09
1.139239e-08 4.920168e-09 -8.549131e-09
1.124404e-08 6.711289e-09 -7.568539e-09
1.119239e-08 5.315458e-09 -6.444691e-09
1.293971e-08 4.816968e-09 -8.314573e-09
1.140215e-08 6.485378e-09 -1.005845e-08
1.169684e-08 5.797302e-09 -1.027921e-08
1.109068e-08 5.836129e-09 -8.939505e-09
1.239149e-08 5.013668e-09 -9.135766e-09
1.160419e-08 6.041853e-09 -7.159777e-09
1.293178e-08 5.409556e-09 -8.136532e-09
1.337812e-08 5.048448e-09 -9.018133e-09
1.392284e-08 5.236905e-09 -1.055803e-08
1.168888e-08 6.827044e-09 -8.771922e-09
1.418546e-08 6.758146e-09 -1.037625e-08
1.407731e-08 6.349059e-09 -8.989670e-09
1.361814e-08 7.908709e-09 -9.189311e-09
1.935075e-09 1.349595e-09 -7.235828e-10
-4.310143e-09 -3.108000e-09 7.434252e-09
7.327152e-09 2.481408e-09 -6.663598e-09
7.299628e-09 3.112685e-09 -6.201767e-09
1.240841e-08 6.414260e-09 -1.141864e-08
2.355111e-09 1.198455e-09 7.851958e-10
-4.042705e-09 2.014912e-10 -7.370721e-10
7.989684e-09 3.037085e-09 -5.685634e-09
4.278318e-10 3.819624e-10 7.431184e-09
-1.986920e-10 2.926328e-10 -1.323828e-09
-2.965198e-09 -9.423331e-10 -2.277562e-09
7.857467e-09 2.861863e-09 -7.004163e-09
-4.644518e-09 1.562959e-09 -3.186864e-09
-5.741993e-09 1.318782e-09 1.484487e-09
-5.977004e-11 1.439254e-09 3.985145e-09
1.332910e-09 -1.032842e-09 4.990324e-09
1.020375e-08 4.743302e-09 -7.719490e-09
-4.589991e-09 -3.743021e-09 -2.491994e-09
-3.981515e-09 2.644473e-09 1.147964e-09
-3.259956e-09 -2.843779e-09 4.412283e-09
-6.059815e-09 2.545942e-09 1.677030e-09
1.114062e-08 4.889722e-09 -6.548251e-09
1.621228e-10 1.124336e-09 6.496622e-09
3.103912e-10 3.521630e-10 -2.296468e-09
4.050291e-10 1.730318e-09 4.148754e-09
-4.727877e-09 -1.930418e-09 5.021684e-09
-1.693406e-09 -2.557177e-09 4.595105e-09
-4.147012e-09 3.188501e-09 1.343466e-09
-2.161813e-09 -2.546982e-09 -3.568444e-09
1.318111e-08 6.640911e-09 -1.146457e-08
[...]
POINT_DATA 1605
VECTORS vector_force float
-4.455307e+02 -8.540498e+02 -2.859660e+01 
-5.824297e+02 -7.236140e+02 2.722017e+02 
-4.706676e+02 -1.375310e+03 -5.406319e+02 
1.692355e+02 -1.000503e+03 -1.208394e+02 
-1.852627e+02 -1.583391e+02 -5.323769e+02 
-4.243516e+02 8.374654e+01 4.199360e+02 
7.757678e+01 1.626475e+02 -6.176634e+01 
3.487917e+02 1.150169e+03 2.133607e+01 
-1.530275e+02 -4.984529e+02 -4.664266e+02 
3.987226e+02 -3.413899e+02 4.941158e+02 
1.286981e+02 1.687548e+01 -3.909997e+02 
2.347852e+02 4.114508e+01 -9.118651e+02 
4.976500e+02 3.356508e+00 1.328422e+01 
3.300433e+01 1.026171e+02 -6.313519e+02 
2.525510e+02 -6.249261e+02 -4.059583e+02 
-1.335723e+02 4.087118e+02 -6.513910e+02 
1.427208e+02 -3.627732e+02 -7.024239e+02 
-1.629590e+02 2.644509e+02 6.370728e+02 
-2.230945e+02 2.540654e+02 1.056038e+03 
8.774776e+02 2.506350e+02 -1.154833e+03 
-4.275593e+02 -1.332007e+03 -9.754192e+01 
-3.191907e+02 -7.589234e+02 -7.096509e+02 
1.633370e+02 3.015126e+02 -3.406106e+02 
-6.282978e+02 -9.219930e+02 1.135451e+03 
9.067405e+02 2.584175e+02 -5.475358e+02 
-1.917356e+02 -4.127645e+02 -4.611775e+02 
1.696580e+02 -1.163041e+02 6.086686e+02 
-2.204577e+02 6.350190e+01 7.606619e+01 
-2.982019e+02 -2.492802e+02 2.245664e+02 
2.008788e+02 4.192656e+02 -3.203725e+02 
-5.660786e+02 -3.091852e+02 5.052196e+01 
2.152395e+01 1.820044e+02 -2.810267e+02 
-5.310362e+02 1.365301e+02 -1.152015e+03 
-2.288433e+02 -3.358526e+02 -2.127621e+02 
4.495099e+02 7.817055e+01 -8.350723e+01 
-2.973330e+02 4.924415e+01 -6.364185e+01 
4.844425e+02 -5.185509e+02 -2.096929e+02 
-4.220199e+01 -2.739964e+00 -2.605684e+01 
-6.539855e+02 -8.334517e+02 -2.062909e+01 
-7.516700e+02 2.464088e+02 1.761862e+02 
5.267078e+02 3.951708e+02 -2.304203e+02 
-6.685930e+01 2.105858e+02 -8.568535e+02 
4.486164e+01 2.308285e+02 -5.551605e+02 
4.607028e+02 -1.355169e+02 -5.929119e+02 
1.527556e+01 -3.117921e+02 2.190315e+02 
-5.710358e+02 -6.157591e+02 7.469666e+02 
9.080907e+02 -4.412329e+02 -1.992686e+03 
9.756120e+01 3.472950e+02 4.039865e+02 
-1.114464e+02 2.996123e+02 -5.158608e+02 
-5.622877e+02 3.129208e+00 9.701539e+01 
-1.580605e+02 4.569746e+02 -5.857978e+02 
-9.687900e+01 -9.966749e+02 -2.790433e+01 
3.317588e+02 -4.450890e+02 -5.429422e+02 
-5.832186e+02 -5.830559e+02 5.780773e+01 
-9.350401e+01 -5.458684e+02 -2.394431e+02 
-4.138405e+01 -2.521552e+02 -6.261089e+02 
-3.906154e+00 7.018134e+02 -1.237023e+02 
-2.143658e+02 -1.401356e+03 6.762983e+02 
-1.124738e+03 3.946451e+02 -3.902546e+02 
-4.435921e+02 3.528481e+02 -6.056309e+02 
-7.377536e+02 -4.881314e+02 4.179474e+02 
-5.130141e+02 -3.011486e+02 6.139927e+02 
1.436099e+02 3.457914e+01 9.534735e+01 
-2.666776e+02 3.713200e+02 2.206638e+02 
6.719456e+02 5.086352e+02 -1.715038e+02 
-6.358656e+02 -6.492734e+02 -9.431898e+01 
-1.306265e+02 -7.713320e+02 -1.275892e+02 
-8.666789e+02 -1.024060e+02 1.739698e+02 
-1.487647e+03 -1.331662e+03 -1.657357e+02 
-5.631132e+02 7.284282e+02 -4.391701e+01 
9.052607e+02 9.987831e+01 2.857926e+02 
-9.047154e+02 -1.229138e+02 3.812443e+02 
-4.740926e+01 6.873513e+01 -5.052877e+02 
8.924873e+01 -2.139339e+02 -4.974949e+02 
-2.211838e+02 2.049890e+02 -2.285531e+02 
2.469051e+02 -3.605179e+02 -5.414828e+02 
-5.389400e+02 -9.138817e+01 1.014154e+02 
-1.528173e+02 7.855289e+02 -1.237328e+02 
5.835084e+01 1.031881e+01 -2.528986e+02 
-1.382828e+02 -6.987889e+02 5.110174e+02 
2.320809e+01 -1.336056e+02 2.572488e+02 
-1.712497e+02 -2.172448e+02 -7.392937e+02 
-1.295600e+01 -6.071962e+02 -1.827583e+02 
-6.009882e+02 2.341462e+01 -1.665140e+02 
-2.441930e+02 1.465855e+02 -5.130657e+02 
9.565155e+02 -5.994477e+01 -7.511920e+00 
2.927135e+02 -1.884370e+02 -1.828436e+02 
-4.429077e+01 -8.439018e+01 -8.548137e+01 
-3.063795e+02 -5.558256e+02 -2.320643e+02 
-1.522461e+01 -2.358787e+02 -5.074988e+01 
2.805275e+01 4.623477e+01 1.317679e+02 
9.143711e+00 1.534474e+02 -3.066279e+02 
-2.051620e+02 -1.600959e+01 2.646169e+02 
-9.265797e+01 -2.342106e+02 -9.315246e+01 
-5.397641e+02 -2.645024e+01 -1.471435e+02 
2.274657e+02 1.728626e+02 5.542798e+02 
-8.587637e+01 2.792887e+02 -5.136914e+01 
-3.693056e+01 3.072408e+02 -3.009784e+02 
-7.220653e+02 6.634357e+01 -4.306693e+02 
-4.969647e+02 -3.340160e+02 -2.945511e+02 
-6.718113e+02 2.880599e+02 1.060382e+03 
-9.168010e+01 -1.468775e+02 -1.133416e+01 
-1.573578e+02 5.033224e+02 -8.726775e+01 
3.039542e+02 5.903360e+01 6.351790e+02 
-5.203767e+02 -1.093890e+03 2.448583e+02 
-1.033110e+03 2.447710e+02 1.488335e+02 
-1.817014e+02 -2.757743e+02 -1.362651e+02 
-2.929176e+02 7.791224e+01 9.928725e+02 
5.696093e+02 -3.886123e+02 -4.382375e+02 
-4.148335e+02 3.333229e+02 5.333248e+02 
-2.918958e+02 -4.583101e+02 -5.664289e+01 
2.042947e+02 -1.693142e+02 8.359733e+00 
-3.354954e+02 5.893773e+01 2.137192e+02 
5.450334e+02 -4.139333e+02 -4.612580e+02 
3.883124e+02 -3.138799e+02 -1.916522e+02 
-5.285499e+02 -9.713333e+01 1.918798e+02 
9.821503e+01 -5.185659e+02 -4.418386e+02 
-2.278844e+00 2.748145e+02 9.358785e+01 
-8.411908e+02 -9.774217e+02 -1.066621e+03 
4.770500e+02 -1.337710e+02 -1.258624e+03 
1.236146e+02 -3.549415e+02 -3.819695e+02 
5.422470e+02 -2.539613e+02 -4.717952e+02 
2.358763e+02 -2.526154e+02 -1.770918e+02 
-4.352495e+02 2.848092e+02 -3.762413e+02 
-8.121974e+01 -1.044081e+02 -6.829580e+01 
-3.659330e+00 -2.724126e+02 1.847106e+02 
5.638014e+02 -2.283482e+02 -5.232152e+02 
9.656985e+00 -2.624903e+02 1.108631e+02 
2.534767e+02 -7.990730e+02 -5.145868e+02 
-5.154101e+02 -4.910675e+02 -3.757338e+01 
1.888390e+02 3.584187e+02 4.582164e+02 
1.086817e+03 2.134059e+02 -7.367290e+01 
1.522005e+02 2.031351e+02 3.763115e+01 
3.226528e+02 9.247027e+01 2.803388e+02 
1.336624e+02 1.925707e+02 -5.087997e+02 
-1.630241e+02 6.143844e+01 3.182116e+02 
1.063063e+03 -2.772511e+01 -2.223821e+02 
-3.176017e+02 -4.471802e+02 -4.391211e+02 
8.581297e+02 -1.099604e+03 1.192155e+03 
1.056629e+03 2.794723e+02 5.237388e+01 
4.823044e+02 2.769143e+02 -3.089534e+02 
6.111184e+01 -1.230954e+02 -3.424167e+01 
6.251586e+02 1.979993e+02 -1.080397e+01 
1.791922e+02 -3.415235e+01 8.598093e+01 
2.389363e+02 6.544338e+02 -7.374515e+00 
3.351796e+02 -4.084439e+02 -4.238869e+02 
2.840840e+02 -2.929927e+02 -1.942940e+02 
5.190748e+02 2.279239e+02 5.161957e+02 
1.165476e+03 -9.443151e+02 2.184321e+02 
-1.760292e+01 7.118754e+02 -6.944696e+01 
1.317880e+02 1.702376e+02 2.751549e+02 
-1.079244e+02 -1.335083e+02 -4.142643e+02 
-1.201009e+02 1.688858e+02 2.495581e+02 
7.029000e+01 -3.204383e+02 1.403121e+02 
7.651240e+02 -6.086084e+02 4.811096e+02 
2.927130e+02 -2.759945e+02 1.565736e+03 
8.465838e+02 -1.898400e+02 -2.711846e+01 
1.537277e+01 3.323972e+02 -2.451111e+02 
1.855925e+02 -5.034581e+02 -5.335057e+02 
2.482531e+02 -6.475365e+02 -1.153826e+02 
2.492530e+02 -1.101619e+02 7.906810e+02 
3.773673e+02 7.746318e+01 2.855590e+01 
-3.339114e+02 1.185136e+01 -5.382272e+02 
1.021903e+02 1.022629e+01 6.487931e+02 
-1.138441e+02 5.531287e+02 -6.402122e+02 
-1.051438e+03 6.623846e+02 2.371605e+02 
-7.463846e+02 -9.820729e+02 4.653575e+02 
5.141585e+02 4.199176e+02 1.700894e+02 
-8.415841e+02 6.997816e+02 -1.391373e+02 
-2.419835e+02 -7.191338e+01 4.992888e+02 
-3.159233e+02 6.242875e+02 3.442634e+02 
7.074020e+02 -2.546479e+02 2.106593e+02 
-2.150279e+02 -1.131192e+02 1.093125e+02 
-1.170283e+02 -8.529754e+01 -9.756374e+00 
8.406747e+02 -5.250513e+02 -6.300674e+01 
3.552397e+00 -6.910978e+02 1.066527e+02 
9.759571e+01 5.476467e+02 -1.837960e+02 
-4.229195e+02 -8.304727e+02 7.396694e+02 
-3.595954e+02 -1.846244e+02 5.074885e+01 
-3.781511e+02 -4.008681e+02 -6.799335e+02 
6.075749e+02 7.756311e+02 9.686913e+02 
-8.779035e+02 -2.353991e+02 -4.656873e+02 
1.987092e+02 -3.218447e+02 2.308475e+02 
-1.691493e+02 -6.165406e+02 1.837102e+02 
-5.805511e+02 -7.830054e+02 4.366536e+02 
-4.795223e+02 -1.752448e+02 -6.775044e+02 
1.011530e+03 -1.218734e+03 5.749784e+02 
7.499428e+02 -8.080477e+02 -8.360294e+00 
6.001168e+02 -2.687195e+02 -8.433830e+02 
8.674707e+02 -1.069078e+02 -1.717695e+03 
5.010865e+02 1.076658e+03 7.608775e+02 
4.018980e+02 9.635159e+01 -7.280319e+02 
3.964681e+02 -3.788726e+00 -4.434664e+02 
-2.546046e+02 4.249083e+02 3.489860e+02 
5.004090e+02 -3.245308e+02 -1.208954e+02 
-3.469335e+02 -8.661866e+02 3.064496e+02 
-2.584647e+02 -1.004412e+03 6.538746e+02 
3.003910e+01 1.409957e+02 1.661102e+02 
9.394670e+02 -2.221027e+02 1.131147e+03 
2.912774e+02 -3.197840e+02 4.286669e+01 
-4.097801e+02 5.920090e+02 -1.452625e+02 
4.796088e+02 8.704368e+02 3.796409e+02 
1.517431e+02 9.581085e+01 4.862148e+02 
-3.989935e+02 1.006099e+02 -1.238762e+01 
5.962355e+02 2.649669e+02 7.217511e+00 
2.690091e+02 -6.312079e+02 8.319727e+02 
-5.453051e+02 7.956388e+02 7.872635e+01 
1.512599e+02 6.429940e+02 2.599559e+02 
7.348190e+02 1.817722e+03 -2.513464e+02 
-8.079609e+02 9.588685e+01 -6.417132e+02 
3.581468e+02 1.176240e+03 9.276248e+02 
1.692530e+02 1.419729e+03 5.600762e+02 
-9.066376e+02 1.130675e+03 -6.753370e+02 
0.000000e+00 0.000000e+00 0.000000e+00 
0.000000e+00 0.000000e+00 0.000000e+00 
0.000000e+00 0.000000e+00 0.000000e+00 
0.000000e+00 0.000000e+00 0.000000e+00 
0.000000e+00 0.000000e+00 0.000000e+00 
0.000000e+00 0.000000e+00 0.000000e+00 
0.000000e+00 0.000000e+00 0.000000e+00 
0.000000e+00 0.000000e+00 0.000000e+00 
0.000000e+00 0.000000e+00 0.000000e+00 
0.000000e+00 0.000000e+00 0.000000e+00 
0.000000e+00 0.000000e+00 0.000000e+00 
0.000000e+00 0.000000e+00 0.000000e+00 
0.000000e+00 0.000000e+00 0.000000e+00 
0.000000e+00 0.000000e+00 0.000000e+00 
0.000000e+00 0.000000e+00 0.000000e+00 
0.000000e+00 0.000000e+00 0.000000e+00 
0.000000e+00 0.000000e+00 0.000000e+00 
0.000000e+00 0.000000e+00 0.000000e+00 
0.000000e+00 0.000000e+00 0.000000e+00 
0.000000e+00 0.000000e+00 0.000000e+00 
0.000000e+00 0.000000e+00 0.000000e+00 
0.000000e+00 0.000000e+00 0.000000e+00 
0.000000e+00 0.000000e+00 0.000000e+00 
0.000000e+00 0.000000e+00 0.000000e+00 
0.000000e+00 0.000000e+00 0.000000e+00 
0.000000e+00 0.000000e+00 0.000000e+00 
0.000000e+00 0.000000e+00 0.000000e+00 
0.000000e+00 0.000000e+00 0.000000e+00 
0.000000e+00 0.000000e+00 0.000000e+00 
0.000000e+00 0.000000e+00 0.000000e+00 
0.000000e+00 0.000000e+00 0.000000e+00 
0.000000e+00 0.000000e+00 0.000000e+00 
0.000000e+00 0.000000e+00 0.000000e+00 
0.000000e+00 0.000000e+00 0.000000e+00 
0.000000e+00 0.000000e+00 0.000000e+00 
0.000000e+00 0.000000e+00 0.000000e+00 
0.000000e+00 0.000000e+00 0.000000e+00 
0.000000e+00 0.000000e+00 0.000000e+00 
0.000000e+00 0.000000e+00 0.000000e+00 
0.000000e+00 0.000000e+00 0.000000e+00 
0.000000e+00 0.000000e+00 0.000000e+00 
0.000000e+00 0.000000e+00 0.000000e+00 
0.000000e+00 0.000000e+00 0.000000e+00 
0.000000e+00 0.000000e+00 0.000000e+00 
0.000000e+00 0.000000e+00 0.000000e+00 
0.000000e+00 0.000000e+00 0.000000e+00 
0.000000e+00 0.000000e+00 0.000000e+00 
0.000000e+00 0.000000e+00 0.000000e+00 
0.000000e+00 0.000000e+00 0.000000e+00 
0.000000e+00 0.000000e+00 0.000000e+00 
0.000000e+00 0.000000e+00 0.000000e+00 
0.000000e+00 0.000000e+00 0.000000e+00 
0.000000e+00 0.000000e+00 0.000000e+00 
0.000000e+00 0.000000e+00 0.000000e+00 
0.000000e+00 0.000000e+00 0.000000e+00 
0.000000e+00 0.000000e+00 0.000000e+00 
0.000000e+00 0.000000e+00 0.000000e+00 
0.000000e+00 0.000000e+00 0.000000e+00 
0.000000e+00 0.000000e+00 0.000000e+00 
0.000000e+00 0.000000e+00 0.000000e+00 
0.000000e+00 0.000000e+00 0.000000e+00 
0.000000e+00 0.000000e+00 0.000000e+00 
0.000000e+00 0.000000e+00 0.000000e+00 
0.000000e+00 0.000000e+00 0.000000e+00 
0.000000e+00 0.000000e+00 0.000000e+00 
0.000000e+00 0.000000e+00 0.000000e+00 
0.000000e+00 0.000000e+00 0.000000e+00 
0.000000e+00 0.000000e+00 0.000000e+00 
0.000000e+00 0.000000e+00 0.000000e+00 
0.000000e+00 0.000000e+00 0.000000e+00 
0.000000e+00 0.000000e+00 0.000000e+00 
0.000000e+00 0.000000e+00 0.000000e+00 
0.000000e+00 0.000000e+00 0.000000e+00 
0.000000e+00 0.000000e+00 0.000000e+00 
0.000000e+00 0.000000e+00 0.000000e+00 
0.000000e+00 0.000000e+00 0.000000e+00 
0.000000e+00 0.000000e+00 0.000000e+00 
0.000000e+00 0.000000e+00 0.000000e+00 
0.000000e+00 0.000000e+00 0.000000e+00 
0.000000e+00 0.000000e+00 0.000000e+00 
0.000000e+00 0.000000e+00 0.000000e+00 
0.000000e+00 0.000000e+00 0.000000e+00 
0.000000e+00 0.000000e+00 0.000000e+00 
0.000000e+00 0.000000e+00 0.000000e+00 
0.000000e+00 0.000000e+00 0.000000e+00 
0.000000e+00 0.000000e+00 0.000000e+00 
0.000000e+00 0.000000e+00 0.000000e+00 
0.000000e+00 0.000000e+00 0.000000e+00 
0.000000e+00 0.000000e+00 0.000000e+00 
0.000000e+00 0.000000e+00 0.000000e+00 
0.000000e+00 0.000000e+00 0.000000e+00 
0.000000e+00 0.000000e+00 0.000000e+00 
0.000000e+00 0.000000e+00 0.000000e+00 
0.000000e+00 0.000000e+00 0.000000e+00 
0.000000e+00 0.000000e+00 0.000000e+00 
0.000000e+00 0.000000e+00 0.000000e+00 
0.000000e+00 0.000000e+00 0.000000e+00 
0.000000e+00 0.000000e+00 0.000000e+00 
0.000000e+00 0.000000e+00 0.000000e+00 
0.000000e+00 0.000000e+00 0.000000e+00 
0.000000e+00 0.000000e+00 0.000000e+00 
0.000000e+00 0.000000e+00 0.000000e+00 
0.000000e+00 0.000000e+00 0.000000e+00 
0.000000e+00 0.000000e+00 0.000000e+00 
0.000000e+00 0.000000e+00 0.000000e+00 
0.000000e+00 0.000000e+00 0.000000e+00 
0.000000e+00 0.000000e+00 0.000000e+00 
0.000000e+00 0.000000e+00 0.000000e+00 
0.000000e+00 0.000000e+00 0.000000e+00 
0.000000e+00 0.000000e+00 0.000000e+00 
0.000000e+00 0.000000e+00 0.000000e+00 
0.000000e+00 0.000000e+00 0.000000e+00 
0.000000e+00 0.000000e+00 0.000000e+00 
0.000000e+00 0.000000e+00 0.000000e+00 
0.000000e+00 0.000000e+00 0.000000e+00 
0.000000e+00 0.000000e+00 0.000000e+00 
0.000000e+00 0.000000e+00 0.000000e+00 
0.000000e+00 0.000000e+00 0.000000e+00 
0.000000e+00 0.000000e+00 0.000000e+00 
0.000000e+00 0.000000e+00 0.000000e+00 
0.000000e+00 0.000000e+00 0.000000e+00 
0.000000e+00 0.000000e+00 0.000000e+00 
0.000000e+00 0.000000e+00 0.000000e+00 
0.000000e+00 0.000000e+00 0.000000e+00 
0.000000e+00 0.000000e+00 0.000000e+00 
0.000000e+00 0.000000e+00 0.000000e+00 
0.000000e+00 0.000000e+00 0.000000e+00 
0.000000e+00 0.000000e+00 0.000000e+00 
0.000000e+00 0.000000e+00 0.000000e+00 
0.000000e+00 0.000000e+00 0.000000e+00 
0.000000e+00 0.000000e+00 0.000000e+00 
0.000000e+00 0.000000e+00 0.000000e+00 
0.000000e+00 0.000000e+00 0.000000e+00 
0.000000e+00 0.000000e+00 0.000000e+00 
0.000000e+00 0.000000e+00 0.000000e+00 
0.000000e+00 0.000000e+00 0.000000e+00 
0.000000e+00 0.000000e+00 0.000000e+00 
0.000000e+00 0.000000e+00 0.000000e+00 
0.000000e+00 0.000000e+00 0.000000e+00 
0.000000e+00 0.000000e+00 0.000000e+00 
0.000000e+00 0.000000e+00 0.000000e+00 
0.000000e+00 0.000000e+00 0.000000e+00 
0.000000e+00 0.000000e+00 0.000000e+00 
0.000000e+00 0.000000e+00 0.000000e+00 
0.000000e+00 0.000000e+00 0.000000e+00 
0.000000e+00 0.000000e+00 0.000000e+00 
0.000000e+00 0.000000e+00 0.000000e+00 
0.000000e+00 0.000000e+00 0.000000e+00 
0.000000e+00 0.000000e+00 0.000000e+00 
0.000000e+00 0.000000e+00 0.000000e+00 
0.000000e+00 0.000000e+00 0.000000e+00 
0.000000e+00 0.000000e+00 0.000000e+00 
0.000000e+00 0.000000e+00 0.000000e+00 
0.000000e+00 0.000000e+00 0.000000e+00 
0.000000e+00 0.000000e+00 0.000000e+00 
0.000000e+00 0.000000e+00 0.000000e+00 
0.000000e+00 0.000000e+00 0.000000e+00 
0.000000e+00 0.000000e+00 0.000000e+00 
0.000000e+00 0.000000e+00 0.000000e+00 
0.000000e+00 0.000000e+00 0.000000e+00 
0.000000e+00 0.000000e+00 0.000000e+00 
0.000000e+00 0.000000e+00 0.000000e+00 
0.000000e+00 0.000000e+00 0.000000e+00 
0.000000e+00 0.000000e+00 0.000000e+00 
0.000000e+00 0.000000e+00 0.000000e+00 
0.000000e+00 0.000000e+00 0.000000e+00 
0.000000e+00 0.000000e+00 0.000000e+00 
0.000000e+00 0.000000e+00 0.000000e+00 
0.000000e+00 0.000000e+00 0.000000e+00 
0.000000e+00 0.000000e+00 0.000000e+00 
0.000000e+00 0.000000e+00 0.000000e+00 
0.000000e+00 0.000000e+00 0.000000e+00 
0.000000e+00 0.000000e+00 0.000000e+00 
0.000000e+00 0.000000e+00 0.000000e+00 
0.000000e+00 0.000000e+00 0.000000e+00 
0.000000e+00 0.000000e+00 0.000000e+00 
0.000000e+00 0.000000e+00 0.000000e+00 
0.000000e+00 0.000000e+00 0.000000e+00 
0.000000e+00 0.000000e+00 0.000000e+00 
0.000000e+00 0.000000e+00 0.000000e+00 
0.000000e+00 0.000000e+00 0.000000e+00 
0.000000e+00 0.000000e+00 0.000000e+00 
0.000000e+00 0.000000e+00 0.000000e+00 
0.000000e+00 0.000000e+00 0.000000e+00 
0.000000e+00 0.000000e+00 0.000000e+00 
0.000000e+00 0.000000e+00 0.000000e+00 
0.000000e+00 0.000000e+00 0.000000e+00 
0.000000e+00 0.000000e+00 0.000000e+00 
0.000000e+00 0.000000e+00 0.000000e+00 
0.000000e+00 0.000000e+00 0.000000e+00 
0.000000e+00 0.000000e+00 0.000000e+00 
0.000000e+00 0.000000e+00 0.000000e+00 
0.000000e+00 0.000000e+00 0.000000e+00 
0.000000e+00 0.000000e+00 0.000000e+00 
0.000000e+00 0.000000e+00 0.000000e+00 
0.000000e+00 0.000000e+00 0.000000e+00 
0.000000e+00 0.000000e+00 0.000000e+00 
0.000000e+00 0.000000e+00 0.000000e+00 
0.000000e+00 0.000000e+00 0.000000e+00 
0.000000e+00 0.000000e+00 0.000000e+00 
0.000000e+00 0.000000e+00 0.000000e+00 
0.000000e+00 0.000000e+00 0.000000e+00 
0.000000e+00 0.000000e+00 0.000000e+00 
0.000000e+00 0.000000e+00 0.000000e+00 
0.000000e+00 0.000000e+00 0.000000e+00 
0.000000e+00 0.000000e+00 0.000000e+00 
0.000000e+00 0.000000e+00 0.000000e+00 
0.000000e+00 0.000000e+00 0.000000e+00 
0.000000e+00 0.000000e+00 0.000000e+00 
0.000000e+00 0.000000e+00 0.000000e+00 
0.000000e+00 0.000000e+00 0.000000e+00 
0.000000e+00 0.000000e+00 0.000000e+00 
0.000000e+00 0.000000e+00 0.000000e+00 
0.000000e+00 0.000000e+00 0.000000e+00 
0.000000e+00 0.000000e+00 0.000000e+00 
0.000000e+00 0.000000e+00 0.000000e+00 
0.000000e+00 0.000000e+00 0.000000e+00 
0.000000e+00 0.000000e+00 0.000000e+00 
0.000000e+00 0.000000e+00 0.000000e+00 
0.000000e+00 0.000000e+00 0.000000e+00 
0.000000e+00 0.000000e+00 0.000000e+00 
0.000000e+00 0.000000e+00 0.000000e+00 
0.000000e+00 0.000000e+00 0.000000e+00 
0.000000e+00 0.000000e+00 0.000000e+00 
0.000000e+00 0.000000e+00 0.000000e+00 
0.000000e+00 0.000000e+00 0.000000e+00 
0.000000e+00 0.000000e+00 0.000000e+00 
0.000000e+00 0.000000e+00 0.000000e+00 
0.000000e+00 0.000000e+00 0.000000e+00 
0.000000e+00 0.000000e+00 0.000000e+00 
0.000000e+00 0.000000e+00 0.000000e+00 
0.000000e+00 0.000000e+00 0.000000e+00 
0.000000e+00 0.000000e+00 0.000000e+00 
0.000000e+00 0.000000e+00 0.000000e+00 
0.000000e+00 0.000000e+00 0.000000e+00 
0.000000e+00 0.000000e+00 0.000000e+00 
0.000000e+00 0.000000e+00 0.000000e+00 
0.000000e+00 0.000000e+00 0.000000e+00 
0.000000e+00 0.000000e+00 0.000000e+00 
0.000000e+00 0.000000e+00 0.000000e+00 
0.000000e+00 0.000000e+00 0.000000e+00 
0.000000e+00 0.000000e+00 0.000000e+00 
0.000000e+00 0.000000e+00 0.000000e+00 
0.000000e+00 0.000000e+00 0.000000e+00 
0.000000e+00 0.000000e+00 0.000000e+00 
0.000000e+00 0.000000e+00 0.000000e+00 
0.000000e+00 0.000000e+00 0.000000e+00 
0.000000e+00 0.000000e+00 0.000000e+00 
0.000000e+00 0.000000e+00 0.000000e+00 
0.000000e+00 0.000000e+00 0.000000e+00 
0.000000e+00 0.000000e+00 0.000000e+00 
0.000000e+00 0.000000e+00 0.000000e+00 
0.000000e+00 0.000000e+00 0.000000e+00 
0.000000e+00 0.000000e+00 0.000000e+00 
0.000000e+00 0.000000e+00 0.000000e+00 
0.000000e+00 0.000000e+00 0.000000e+00 
0.000000e+00 0.000000e+00 0.000000e+00 
0.000000e+00 0.000000e+00 0.000000e+00 
0.000000e+00 0.000000e+00 0.000000e+00 
0.000000e+00 0.000000e+00 0.000000e+00 
0.000000e+00 0.000000e+00 0.000000e+00 
0.000000e+00 0.000000e+00 0.000000e+00 
0.000000e+00 0.000000e+00 0.000000e+00 
0.000000e+00 0.000000e+00 0.000000e+00 
0.000000e+00 0.000000e+00 0.000000e+00 
0.000000e+00 0.000000e+00 0.000000e+00 
0.000000e+00 0.000000e+00 0.000000e+00 
0.000000e+00 0.000000e+00 0.000000e+00 
0.000000e+00 0.000000e+00 0.000000e+00 
0.000000e+00 0.000000e+00 0.000000e+00 
0.000000e+00 0.000000e+00 0.000000e+00 
0.000000e+00 0.000000e+00 0.000000e+00 
0.000000e+00 0.000000e+00 0.000000e+00 
0.000000e+00 0.000000e+00 0.000000e+00 
0.000000e+00 0.000000e+00 0.000000e+00 
0.000000e+00 0.000000e+00 0.000000e+00 
0.000000e+00 0.000000e+00 0.000000e+00 