# vtk DataFile Version 3.1
*description-name of input file* step:2301 
ASCII
DATASET UNSTRUCTURED_GRID
POINTS 1605 FLOAT
-7.149321e-09 -5.510248e-09 -2.976547e-10
-7.765019e-09 -4.543864e-09 -7.679977e-10
-6.177601e-09 -4.826235e-09 -7.500521e-10
-7.759410e-09 -4.169352e-09 2.115791e-09
-5.546493e-09 -6.059637e-09 -1.681073e-10
1.203563e-08 6.851787e-09 -1.064447e-08
1.357720e-08 7.173761e-09 -1.100271e-08
1.292412e-08 5.841807e-09 -1.212450e-08
-6.281712e-09 -6.226895e-09 7.544510e-10
-6.301590e-09 -2.843969e-09 8.580635e-10
-4.476993e-09 -4.555263e-09 -1.110023e-09
-6.139890e-09 -2.840733e-09 -3.771621e-10
-5.565985e-09 -5.288565e-09 2.164128e-09
-5.984332e-09 -3.651543e-09 1.741558e-09
-5.194863e-09 -3.564412e-09 -1.635184e-09
-7.425659e-09 -4.279588e-09 3.213277e-09
-3.660438e-09 -5.589853e-09 6.825736e-11
-6.551372e-09 -1.029325e-09 5.372490e-11
-5.437212e-09 -1.324934e-09 -8.123877e-10
-3.848295e-09 -3.895920e-09 -3.274739e-09
-5.166955e-09 -2.560345e-09 -3.077305e-09
-4.128866e-09 -1.768760e-09 -3.996211e-09
-6.454753e-09 -2.413630e-09 2.338543e-09
-5.569341e-09 -9.847572e-11 -2.436041e-09
-6.233288e-09 4.505454e-10 -8.934815e-10
-3.593864e-09 -4.720659e-09 1.962481e-09
-7.379949e-09 -1.120511e-09 1.290966e-09
-5.819070e-09 -3.344981e-09 4.046607e-09
-4.174636e-09 -2.233524e-09 -3.826593e-10
-8.057767e-09 -2.260065e-09 3.221601e-09
-2.432576e-09 -4.312404e-09 -2.358321e-09
-2.947641e-09 -3.190785e-09 -4.127885e-09
-2.394974e-09 -4.196857e-09 -3.457273e-09
-3.523623e-09 -3.503003e-09 -6.419080e-10
-6.077895e-09 -2.270279e-09 4.069113e-09
-4.094609e-09 -7.034619e-10 -2.152589e-09
-5.794274e-09 -6.322031e-10 2.180429e-09
-4.731638e-09 -2.422928e-10 6.073903e-10
-2.944181e-09 -2.072639e-09 -2.081523e-09
-3.966962e-09 -3.912854e-09 3.687384e-09
-4.796848e-09 9.436625e-11 -5.458909e-10
-3.910402e-09 6.349159e-10 -5.025750e-09
-3.911107e-09 5.006800e-10 -2.897725e-09
-4.795897e-09 9.102832e-10 -3.648101e-09
-4.202626e-09 -2.484178e-09 2.156367e-09
-1.709356e-09 -3.189886e-09 -7.043287e-10
-4.451302e-09 2.355449e-09 -4.451279e-09
-2.654857e-09 -1.411416e-09 -3.270136e-09
-2.997977e-09 2.226563e-10 -2.568073e-09
-1.478816e-09 -1.781038e-09 -3.155819e-09
-3.340287e-09 4.408568e-10 -7.426521e-10
-3.186513e-09 -2.006029e-09 2.339638e-10
-3.476591e-09 3.819425e-11 -4.914245e-09
-1.826698e-09 -2.369104e-09 -1.694099e-09
-3.763541e-09 -5.438901e-10 8.305339e-09
-2.195276e-09 -1.762496e-09 7.497545e-09
-1.881017e-09 3.869712e-10 7.410444e-09
-1.677722e-09 7.663539e-10 -3.986431e-09
-5.806188e-09 -3.179486e-09 6.139585e-09
-4.502699e-09 2.317889e-09 -2.551004e-09
-3.711843e-09 -2.779822e-09 3.903059e-09
-4.479992e-09 -4.212217e-10 2.672225e-09
-3.870459e-09 -1.410755e-09 1.470996e-09
-5.627247e-09 2.325348e-09 -4.111254e-10
-5.097892e-09 8.425376e-10 1.060514e-09
-6.539780e-09 1.967491e-09 1.954876e-09
-4.914758e-09 -4.566680e-09 5.765927e-09
-4.626976e-09 -3.855451e-09 7.089778e-09
-6.333583e-09 -1.515227e-09 6.764529e-09
-1.998024e-09 1.844373e-09 2.054975e-09
-1.805211e-10 2.012697e-09 4.062864e-09
-1.026035e-09 1.924979e-09 7.852370e-10
-4.700223e-09 5.255327e-10 -7.993703e-10
-3.049035e-09 -4.391162e-09 5.354696e-09
9.838920e-10 3.043797e-10 3.678807e-09
1.001060e-09 1.107110e-09 4.367514e-09
-6.099603e-11 7.978310e-10 5.597066e-09
-5.658961e-09 3.196442e-09 1.394403e-09
-4.777281e-09 -1.564106e-09 5.426421e-09
-1.192669e-09 -1.276030e-10 -1.271621e-09
-4.652807e-09 -2.078795e-09 4.564192e-09
-3.471063e-09 2.935010e-10 7.648368e-10
-2.192342e-09 -5.913879e-10 -2.056273e-11
-5.696924e-09 2.358700e-09 3.929150e-09
-2.512900e-09 -5.099004e-09 3.586072e-09
-3.079184e-09 2.595475e-09 -3.960650e-09
-2.350979e-09 -3.614107e-09 2.677924e-09
-5.775658e-09 -5.178064e-10 5.379473e-09
-2.959040e-09 1.940680e-09 -2.168376e-09
-4.236964e-09 -7.633596e-11 4.809785e-09
-2.896980e-09 -2.943915e-09 5.142429e-09
-5.747704e-09 -6.567996e-10 4.071733e-09
-3.242916e-09 -1.115627e-09 4.256164e-09
-3.197891e-10 -1.484151e-09 1.570284e-10
-4.385057e-09 3.268322e-09 2.483287e-09
-3.675542e-09 2.778795e-09 -7.416581e-10
-2.337365e-10 -1.335763e-09 -3.280901e-09
2.409307e-10 -2.668933e-09 -2.671470e-09
-3.959647e-09 -2.353112e-09 7.944880e-09
-5.302311e-09 -1.470096e-09 7.594573e-09
-5.304313e-09 1.701698e-10 7.736890e-09
6.984069e-10 2.186257e-09 3.249332e-09
-3.775367e-09 1.322892e-09 8.870090e-10
-4.119677e-09 2.868360e-09 3.074477e-10
-6.476028e-09 1.228538e-09 4.740841e-09
-4.321331e-09 -3.068321e-12 3.482209e-09
-3.713997e-09 -2.706775e-09 6.338064e-09
-1.049238e-10 -4.422495e-11 -3.087500e-09
-1.426879e-09 -2.611256e-09 3.628307e-09
-4.934478e-09 1.397915e-09 6.746967e-09
-3.575278e-09 8.988589e-10 3.330778e-09
-4.125510e-09 2.282834e-09 5.510088e-09
-4.216535e-09 1.996404e-09 2.990852e-09
-3.802675e-10 -4.043434e-09 2.646830e-09
8.047313e-10 -3.591810e-09 4.425569e-09
-4.016286e-09 2.284872e-09 2.048563e-09
4.651382e-10 -1.830240e-09 -4.633854e-10
-4.091837e-09 2.806121e-09 4.124776e-09
1.525812e-09 -9.185489e-10 -3.299840e-09
-7.360628e-10 -3.901855e-09 6.284414e-09
-6.209646e-10 -5.613520e-10 1.287490e-09
-2.276545e-09 -3.304253e-09 6.360700e-09
-1.977033e-09 -2.250919e-09 5.576458e-09
-1.622428e-09 -3.089407e-10 2.721386e-09
-1.293686e-09 -1.687532e-09 4.416606e-09
-2.693281e-09 1.273465e-09 3.654252e-09
1.889116e-09 -1.056680e-09 -1.361027e-09
7.689777e-10 7.140101e-10 -1.280365e-09
1.414697e-09 -6.883681e-10 5.824967e-09
-3.182578e-09 1.202157e-09 5.981322e-09
8.515650e-10 6.165481e-10 -3.264657e-09
1.109006e-09 -4.800574e-09 2.961646e-09
-8.285089e-10 -6.837490e-10 3.952135e-09
1.075591e-09 -1.171800e-09 -1.644346e-10
4.642502e-10 -3.464580e-09 5.531584e-09
-3.106930e-09 8.786855e-10 7.338286e-09
-2.416771e-09 2.234164e-09 5.682940e-09
-1.216638e-09 -1.944814e-09 6.678652e-09
2.193111e-09 -4.697246e-09 3.671618e-09
1.993976e-09 -3.608970e-09 2.565689e-09
-3.724525e-10 -1.548697e-09 2.893289e-09
-3.859434e-10 -2.621587e-09 7.025031e-09
1.456580e-09 -1.745321e-09 1.757241e-09
1.984309e-09 -2.819039e-10 -2.327674e-09
-1.187385e-09 1.576866e-09 3.653419e-09
-9.630724e-10 -1.243579e-09 8.144311e-09
1.872494e-09 4.529869e-10 -7.789687e-11
2.721127e-09 -3.715792e-09 4.734482e-09
3.355225e-09 -4.104136e-09 3.497927e-09
1.821393e-09 1.218366e-09 -1.334871e-09
4.313661e-10 -2.354439e-09 6.440420e-09
-1.708016e-09 8.923235e-10 5.162233e-09
2.965012e-09 -5.106685e-10 1.075322e-09
2.378777e-09 5.639856e-10 -4.164643e-09
1.831110e-09 -2.809314e-09 5.041761e-09
3.863769e-09 -2.707306e-09 2.450017e-09
3.565080e-09 3.350411e-10 -2.268998e-09
2.790251e-09 2.422078e-09 -2.585161e-09
2.666891e-09 2.462997e-09 -4.302460e-09
3.336643e-09 1.115484e-09 -4.047803e-09
4.428525e-09 1.924092e-09 -5.476988e-09
1.222839e-09 -1.515417e-09 4.303120e-09
5.949428e-10 -6.373783e-10 7.503805e-09
2.802476e-09 -7.466871e-10 2.109149e-09
1.426989e-09 1.381098e-09 5.375459e-10
2.118100e-09 1.431801e-09 -2.496346e-10
4.553472e-09 1.614486e-09 -3.738979e-09
3.112392e-10 1.385368e-09 7.352216e-09
1.403466e-09 1.153360e-09 2.136684e-09
2.959874e-09 -2.298929e-09 3.496352e-09
2.155898e-09 -9.770919e-11 3.397393e-09
3.683359e-09 -6.863407e-10 2.143951e-09
4.310661e-09 2.735991e-09 -3.589666e-09
3.132595e-09 7.397206e-10 -8.817882e-10
3.333685e-09 1.468822e-09 -2.076886e-09
4.812559e-09 2.808702e-09 -5.156784e-09
3.412572e-09 1.077510e-09 9.388139e-10
5.307957e-09 2.067071e-09 -5.997480e-09
5.235217e-09 1.651779e-09 -4.653686e-09
3.744507e-09 -1.751209e-10 1.100009e-10
3.191380e-09 9.935332e-10 2.671152e-09
6.503627e-09 1.577578e-09 -5.710696e-09
5.918175e-09 2.766076e-09 -4.129638e-09
7.518085e-09 3.103919e-09 -6.781673e-09
6.934309e-09 2.215524e-09 -5.001308e-09
7.339649e-09 2.138711e-09 -6.289120e-09
6.168780e-09 3.625070e-09 -5.035072e-09
7.161216e-09 3.244887e-09 -5.488762e-09
8.588301e-09 2.885418e-09 -5.785591e-09
8.570507e-09 2.945986e-09 -7.092646e-09
8.619290e-09 4.308744e-09 -6.590830e-09
9.676795e-09 3.003354e-09 -6.579365e-09
1.026342e-08 4.525262e-09 -7.839412e-09
1.019318e-08 5.199468e-09 -7.804379e-09
9.432611e-09 4.123214e-09 -5.804726e-09
1.111574e-08 4.617867e-09 -6.621340e-09
1.024760e-08 4.996866e-09 -6.231259e-09
1.117958e-08 5.078708e-09 -8.466050e-09
1.127122e-08 6.663726e-09 -7.541256e-09
1.125183e-08 5.459828e-09 -6.393718e-09
1.289814e-08 4.927335e-09 -8.134064e-09
1.142657e-08 6.422728e-09 -9.970960e-09
1.180202e-08 5.913343e-09 -1.038578e-08
1.117019e-08 5.930493e-09 -8.916262e-09
1.239511e-08 5.052888e-09 -9.045084e-09
1.157741e-08 5.935983e-09 -7.067261e-09
1.295182e-08 5.566740e-09 -8.130666e-09
1.343180e-08 5.012511e-09 -9.038452e-09
1.399007e-08 5.024372e-09 -1.060660e-08
1.177251e-08 6.849166e-09 -8.701854e-09
1.431360e-08 6.690984e-09 -1.038172e-08
1.428615e-08 6.330634e-09 -8.956438e-09
1.379161e-08 7.719155e-09 -9.084893e-09
1.969747e-09 1.325084e-09 -7.922527e-10
-4.293311e-09 -3.104282e-09 7.517329e-09
7.428867e-09 2.621315e-09 -6.535397e-09
7.339651e-09 3.174403e-09 -6.135218e-09
1.247987e-08 6.346797e-09 -1.138448e-08
2.419781e-09 1.229304e-09 7.381799e-10
-4.068568e-09 2.676115e-10 -6.442715e-10
7.874759e-09 3.065153e-09 -5.637177e-09
4.530910e-10 3.739950e-10 7.428011e-09
-2.118454e-10 2.932036e-10 -1.275993e-09
-2.971079e-09 -9.249915e-10 -2.324798e-09
8.044296e-09 3.024952e-09 -6.937160e-09
-4.649298e-09 1.614086e-09 -3.099553e-09
-5.818836e-09 1.405014e-09 1.507695e-09
-9.316232e-11 1.341988e-09 4.010467e-09
1.318768e-09 -1.101893e-09 5.064043e-09
1.022830e-08 4.862365e-09 -7.821896e-09
-4.521579e-09 -3.730166e-09 -2.454961e-09
-4.067982e-09 2.576616e-09 1.178006e-09
-3.304412e-09 -2.861868e-09 4.522744e-09
-6.099370e-09 2.581966e-09 1.674639e-09
1.118379e-08 5.038847e-09 -6.507529e-09
1.251216e-10 1.091600e-09 6.474641e-09
3.320270e-10 3.348926e-10 -2.183933e-09
4.102695e-10 1.559904e-09 4.215189e-09
-4.715044e-09 -1.821450e-09 4.995306e-09
-1.701956e-09 -2.431087e-09 4.602383e-09
-4.252367e-09 3.068341e-09 1.395367e-09
-2.213228e-09 -2.485912e-09 -3.641852e-09
1.325066e-08 6.507784e-09 -1.156360e-08
[...]
POINT_DATA 1605
VECTORS vector_force float
7.285870e+02 3.511447e+01 4.300401e+02 
2.010113e+02 -7.031763e+02 7.126623e+01 
2.640121e+02 -1.911003e+01 -1.243005e+02 
-6.845081e+02 -2.875310e+02 2.249170e+02 
9.522388e+02 5.205299e+02 -5.736404e+02 
-1.292204e+02 7.394537e+01 -4.402892e+02 
-7.218745e+02 -6.190785e+02 -2.451045e+02 
2.818577e+02 -3.592264e+02 -6.774022e+02 
7.398677e+02 -8.082847e+01 -6.570631e+02 
6.080863e+02 1.046248e+02 2.334062e+01 
3.628026e+02 1.787149e+02 -1.514347e+02 
3.984782e+02 2.385590e+02 -1.999479e+02 
7.114224e+02 -4.783386e+02 -1.663975e+03 
-3.406547e+02 7.806553e+01 -8.282861e+02 
1.009325e+03 -3.580271e+02 1.323956e+01 
-3.381590e+02 -1.307367e+00 -7.754316e+02 
4.208310e+02 -1.205980e+02 -7.039266e+02 
1.086291e+03 1.654466e+02 -6.876437e+02 
1.790075e+01 -1.209480e+02 -1.373905e+02 
2.481592e+02 2.871730e+02 1.127838e+00 
-6.577268e+02 -9.477582e+02 1.487233e+03 
-1.247480e+03 -1.100791e+02 1.119524e+03 
1.321369e+02 2.985408e+01 -3.064610e+01 
-9.200144e+02 9.487893e+02 -1.846255e+02 
2.597086e+02 1.151449e+03 -8.825779e+01 
3.867108e+02 7.042703e+02 -6.097173e+02 
-5.448649e+02 8.706262e+02 -1.322804e+03 
3.782847e+02 6.179169e+01 -2.440536e+02 
3.654521e+02 1.443842e+02 3.423418e+01 
-4.065164e+02 -5.431283e+01 9.519078e+02 
1.252034e+02 5.087314e+02 -6.768738e+02 
3.905830e+02 4.200065e+02 5.809117e+02 
1.982079e+02 5.842496e+02 2.932172e+02 
1.220435e+02 -4.025514e+02 4.784683e+02 
2.600022e+02 -5.095758e+02 6.386078e+02 
2.986963e+01 8.038436e+02 -3.276778e+02 
5.748701e+02 4.775924e+02 3.894361e+02 
-4.707226e+02 3.575832e+02 -1.105317e+03 
4.243419e+01 1.256517e+02 9.888285e+01 
-1.963359e+02 -2.388892e+02 2.486389e+02 
-5.641926e+02 -7.811509e+02 -5.853801e+02 
6.318534e+02 -4.868036e+02 -1.844290e+01 
-4.949022e+02 -2.625409e+02 -3.581432e+02 
5.630116e+02 4.470150e+01 -7.479917e+02 
-1.747471e+02 -1.304501e+02 2.549041e+02 
-1.927736e+02 1.003757e+02 -1.767640e+02 
-4.371623e+02 4.816317e+02 -7.659811e+02 
-2.500355e+02 6.897523e+01 1.197478e+02 
-3.809076e+02 3.597888e+02 -3.785118e+02 
-3.115565e+02 4.994502e+02 -2.540313e+02 
4.884505e+02 3.877791e+02 -3.801859e+02 
2.755173e+02 2.468376e+02 5.582769e+02 
-5.330566e+02 -1.075900e+03 1.809322e+02 
-7.203465e+02 2.844127e+02 -1.132569e+01 
5.087105e+02 -4.910147e+02 4.728454e+02 
1.697311e+02 2.185961e+02 3.144106e+02 
4.611776e+00 3.097042e+02 -4.485216e+02 
-1.373193e+03 -4.365308e+01 7.555338e+01 
-3.026087e+02 9.678204e+01 1.756894e+02 
-1.275959e+03 -4.900192e+02 -4.192509e+02 
4.671145e+00 1.737926e+02 3.581100e+02 
-3.031258e+01 7.263122e+02 -3.619120e+02 
-3.450410e+02 3.349863e+01 1.491851e+02 
1.316944e+02 2.061837e+02 2.065295e+02 
-4.733369e+02 4.494630e+02 -2.845578e+02 
-5.999466e+02 8.041190e+02 8.012021e+01 
-1.707900e+03 3.731564e+02 7.885545e+01 
-1.859186e+02 2.701072e+02 9.156739e+02 
8.661675e+01 -3.438992e+02 -8.678976e+02 
-6.500616e+02 3.022211e+02 3.488204e+01 
5.852587e+02 1.800627e+02 -2.350795e+01 
-4.964808e+02 6.184593e+02 -9.702833e+02 
-6.224151e+02 8.410592e+01 -5.317557e+02 
-1.880676e+01 7.428223e+01 9.633184e+02 
-1.865731e+02 1.467272e+02 -3.209288e+02 
-5.270546e+02 -5.788988e+01 -1.863439e+02 
-4.830055e+01 -2.612176e+02 -8.917775e+02 
7.791887e+02 -2.092964e+01 -6.069741e+02 
-3.583775e+02 -2.808595e+02 7.733651e+01 
2.650353e+01 1.366744e+02 -1.904868e+01 
-4.208305e+02 -3.717474e+02 4.156622e+02 
-2.391557e+02 -8.395973e+02 4.350572e+02 
-1.631519e+02 1.005052e+02 -3.243216e+02 
-4.041408e+02 -4.006872e+02 -3.870838e+02 
3.220142e+02 -2.465908e+02 1.421576e+03 
-5.168361e+02 7.042990e+02 1.092620e+02 
-2.832944e+02 -2.159025e+02 7.148752e+02 
-1.168526e+02 -3.887935e+02 5.774755e+02 
-4.067376e+02 9.408892e+02 1.032121e+03 
-3.142929e+02 -3.480201e+02 1.733941e+02 
-8.308571e+01 -2.243852e+02 5.804162e+02 
-4.985893e+01 7.723187e+02 9.040729e+02 
-7.274959e+00 -1.410021e+02 6.070255e+02 
-7.253602e+02 2.787222e+02 -2.762013e+02 
-7.267547e+02 -6.005730e+02 5.081463e+02 
-1.136888e+03 -7.136757e+02 1.318378e+03 
-2.396393e+02 3.341516e+02 -6.636616e+02 
-2.187958e+02 1.743273e+03 -6.307853e+02 
5.832556e+02 3.386556e+02 -1.764784e+02 
-1.118490e+02 -4.668626e+02 7.829057e+01 
2.063192e+02 7.125913e+02 -9.224149e+01 
5.863585e+02 -3.248599e+02 -4.125099e+01 
3.774341e+02 -9.173474e+02 -5.480040e+02 
-8.195873e+02 2.866965e+02 7.118644e+02 
1.054137e+02 4.157702e+02 6.402290e+01 
3.656045e+02 2.238025e+02 8.338044e+02 
-5.477357e+01 -1.431365e+02 3.056546e+02 
-5.762611e+02 -4.975821e+02 3.258763e+02 
-5.292912e+02 8.593054e+01 -5.095340e+02 
3.926225e+02 2.317303e+02 -4.111243e+02 
-5.176817e+02 -5.988109e+02 7.147277e+02 
-2.252411e+02 -4.573840e+02 4.851367e+02 
-8.091086e+02 -3.791721e+02 3.568772e+02 
-6.847102e+02 -1.828775e+02 -2.662893e+02 
3.362361e+01 1.709579e+01 -7.002748e+02 
-2.427505e+02 2.860800e+02 -1.961574e+02 
9.831614e+01 6.766004e+01 -4.922492e+02 
-4.360872e+02 -4.885201e+02 -2.497010e+02 
-9.664064e+02 3.439812e+02 -8.107255e+01 
2.935725e+02 -1.575818e+02 -1.100218e+02 
-7.064464e+02 4.698462e+02 -3.359421e+02 
2.324116e+02 1.265976e+03 3.975692e+02 
-2.922814e+02 4.689732e+01 1.828490e+02 
-5.293840e+02 -1.446190e+02 1.981774e+02 
-4.057956e+01 8.644244e+01 -5.872152e+01 
-2.360823e+02 -8.949790e+01 2.190627e+02 
-1.537244e+01 1.892129e+02 -1.437325e+02 
2.066864e+02 -9.110955e+01 -9.911191e+02 
3.519133e+02 1.777984e+02 -4.684253e+02 
-4.140484e+02 -8.017706e+02 1.024648e+02 
-7.378008e+02 -5.501643e+02 -6.728195e+02 
-3.160991e+02 -1.516379e+02 -1.099063e+02 
1.669238e+01 3.758535e+02 -4.219587e+02 
-5.065721e+02 -8.562138e+01 -8.273112e+02 
-2.232711e+02 9.667284e+01 -9.696078e+02 
-3.169541e+01 -9.085227e+02 3.314774e+01 
6.257780e+02 -9.764022e+02 -8.389449e+02 
-5.038686e+02 -6.404024e+00 3.417017e+02 
-9.901905e+02 -6.018590e+02 -6.519408e+02 
-9.910554e+02 -2.972268e+02 -6.171295e+02 
-3.869764e+02 -2.498922e+02 -6.733033e+02 
4.731127e+02 -9.034946e+02 -2.306258e+02 
-6.754388e+02 9.015621e+01 -6.062575e+02 
-2.802493e+02 8.915403e+01 -2.471916e+02 
-3.131210e+01 -2.350278e+02 -1.184209e+01 
3.817502e+02 8.814636e+02 -5.663719e+02 
2.963031e+02 -2.320801e+02 -2.738099e+02 
-1.226725e+03 -3.838853e+02 1.091852e+02 
-1.135910e+02 3.376052e+02 1.400478e+02 
-2.473821e+01 -7.822771e+00 -1.179232e+03 
-9.944861e+00 7.069748e+02 -1.814495e+01 
2.113908e+02 -1.870936e+01 -5.984532e+02 
2.865902e+02 4.225826e+02 5.199560e+02 
9.595513e+01 4.765301e+01 -2.490690e+02 
-4.218956e+01 -5.775405e+02 -5.400609e+00 
-1.437086e+03 -1.175677e+03 9.140515e+01 
-9.598778e+02 -5.093185e+02 -1.598335e+01 
1.912421e+02 -5.764477e+02 -7.228398e+02 
-3.179014e+02 -2.267678e+02 7.057587e+02 
1.498563e+02 4.866041e+02 1.240464e+02 
-5.865352e+02 1.062820e+03 -1.045543e+03 
-3.894410e+02 -4.094959e+02 -5.049321e+02 
-4.108387e+02 9.716578e+02 -7.907755e+02 
-1.756142e+02 1.034830e+03 7.533609e+02 
1.666039e+02 -3.234319e+02 5.134236e+02 
1.133793e+02 -9.161411e+02 2.706709e+02 
4.469001e+01 4.600905e+02 -9.684647e+01 
3.589858e+02 9.572235e+02 -1.915875e+02 
2.124259e+02 -7.137701e+02 4.378728e+02 
-8.426521e+02 -1.884176e+02 -6.060065e+02 
-9.220630e+02 -1.065009e+03 -6.182633e+02 
5.446781e+02 8.829804e+02 2.253048e+02 
1.285088e+02 -1.415281e+02 9.411899e+01 
-3.161759e+02 -5.946577e+02 5.643139e+02 
-6.037789e+00 -3.189026e+02 -4.917026e+02 
-2.837321e+02 5.926283e+02 -1.182345e+02 
5.681342e+01 6.112585e+02 1.017549e+02 
1.156803e+03 7.472080e+02 -7.253465e+02 
-2.745928e+02 5.485054e+02 -5.029756e+02 
-6.487621e+02 6.249585e+02 6.538778e+02 
3.979101e+02 1.064525e+02 4.153459e+02 
-4.242665e+01 -2.422928e+02 2.160299e+02 
5.130454e+02 7.522850e+02 -7.404994e+02 
4.779451e+01 2.359438e+02 1.306547e+02 
3.193450e+02 -2.632920e+02 1.314735e+02 
-4.928866e+01 -2.051045e+02 3.326869e+02 
5.674283e+01 1.531189e+02 9.403693e+02 
2.729207e+01 2.879433e+02 -2.231679e+02 
6.490444e+02 -1.173209e+02 4.611865e+02 
7.877192e+02 -8.917895e+02 -8.167250e+01 
-1.310842e+02 -7.320555e+02 1.296221e+02 
1.329001e+03 -4.945381e+02 -1.130335e+03 
-1.527618e+02 -4.232912e+02 -7.129268e+02 
-1.081738e+02 -1.960900e+00 -8.455335e+00 
3.434166e+02 -9.655984e+01 -2.979491e+02 
-2.535789e+02 2.128639e+02 -3.731134e+02 
2.734583e+02 -2.182388e+02 -2.041816e+02 
-2.214525e+02 2.675617e+02 1.872293e+02 
-7.287005e+02 6.296612e+01 -9.524282e+02 
-7.231744e+01 3.747178e+02 -2.617954e+02 
5.430680e+02 1.200092e+03 9.066371e+02 
-8.575414e+02 1.297200e+03 -7.690467e+02 
-3.844015e+02 9.901345e+01 -1.761098e+03 
-1.698418e+02 8.583884e+02 2.489600e+02 
-3.017529e+02 9.212960e+02 4.919290e+01 
-1.792869e+01 -2.863163e+02 -4.498591e+02 
3.141673e+02 8.756537e+02 -1.217985e+02 
-4.791712e+02 -1.288874e+02 1.710198e+01 
-4.279864e+01 -1.062559e+02 -9.745468e+02 
-2.773209e+02 3.253158e+02 -2.045506e+01 
-4.733897e+02 -8.193786e+02 -1.208977e+03 
1.671966e+03 -2.095011e+02 -6.962473e+02 
5.226133e+02 3.355928e+02 -2.350897e+03 
0.000000e+00 0.000000e+00 0.000000e+00 
0.000000e+00 0.000000e+00 0.000000e+00 
0.000000e+00 0.000000e+00 0.000000e+00 
0.000000e+00 0.000000e+00 0.000000e+00 
0.000000e+00 0.000000e+00 0.000000e+00 
0.000000e+00 0.000000e+00 0.000000e+00 
0.000000e+00 0.000000e+00 0.000000e+00 
0.000000e+00 0.000000e+00 0.000000e+00 
0.000000e+00 0.000000e+00 0.000000e+00 
0.000000e+00 0.000000e+00 0.000000e+00 
0.000000e+00 0.000000e+00 0.000000e+00 
0.000000e+00 0.000000e+00 0.000000e+00 
0.000000e+00 0.000000e+00 0.000000e+00 
0.000000e+00 0.000000e+00 0.000000e+00 
0.000000e+00 0.000000e+00 0.000000e+00 
0.000000e+00 0.000000e+00 0.000000e+00 
0.000000e+00 0.000000e+00 0.000000e+00 
0.000000e+00 0.000000e+00 0.000000e+00 
0.000000e+00 0.000000e+00 0.000000e+00 
0.000000e+00 0.000000e+00 0.000000e+00 
0.000000e+00 0.000000e+00 0.000000e+00 
0.000000e+00 0.000000e+00 0.000000e+00 
0.000000e+00 0.000000e+00 0.000000e+00 
0.000000e+00 0.000000e+00 0.000000e+00 
0.000000e+00 0.000000e+00 0.000000e+00 
0.000000e+00 0.000000e+00 0.000000e+00 
0.000000e+00 0.000000e+00 0.000000e+00 
0.000000e+00 0.000000e+00 0.000000e+00 
0.000000e+00 0.000000e+00 0.000000e+00 
0.000000e+00 0.000000e+00 0.000000e+00 
0.000000e+00 0.000000e+00 0.000000e+00 
0.000000e+00 0.000000e+00 0.000000e+00 
0.000000e+00 0.000000e+00 0.000000e+00 
0.000000e+00 0.000000e+00 0.000000e+00 
0.000000e+00 0.000000e+00 0.000000e+00 
0.000000e+00 0.000000e+00 0.000000e+00 
0.000000e+00 0.000000e+00 0.000000e+00 
0.000000e+00 0.000000e+00 0.000000e+00 
0.000000e+00 0.000000e+00 0.000000e+00 
0.000000e+00 0.000000e+00 0.000000e+00 
0.000000e+00 0.000000e+00 0.000000e+00 
0.000000e+00 0.000000e+00 0.000000e+00 
0.000000e+00 0.000000e+00 0.000000e+00 
0.000000e+00 0.000000e+00 0.000000e+00 
0.000000e+00 0.000000e+00 0.000000e+00 
0.000000e+00 0.000000e+00 0.000000e+00 
0.000000e+00 0.000000e+00 0.000000e+00 
0.000000e+00 0.000000e+00 0.000000e+00 
0.000000e+00 0.000000e+00 0.000000e+00 
0.000000e+00 0.000000e+00 0.000000e+00 
0.000000e+00 0.000000e+00 0.000000e+00 
0.000000e+00 0.000000e+00 0.000000e+00 
0.000000e+00 0.000000e+00 0.000000e+00 
0.000000e+00 0.000000e+00 0.000000e+00 
0.000000e+00 0.000000e+00 0.000000e+00 
0.000000e+00 0.000000e+00 0.000000e+00 
0.000000e+00 0.000000e+00 0.000000e+00 
0.000000e+00 0.000000e+00 0.000000e+00 
0.000000e+00 0.000000e+00 0.000000e+00 
0.000000e+00 0.000000e+00 0.000000e+00 
0.000000e+00 0.000000e+00 0.000000e+00 
0.000000e+00 0.000000e+00 0.000000e+00 
0.000000e+00 0.000000e+00 0.000000e+00 
0.000000e+00 0.000000e+00 0.000000e+00 
0.000000e+00 0.000000e+00 0.000000e+00 
0.000000e+00 0.000000e+00 0.000000e+00 
0.000000e+00 0.000000e+00 0.000000e+00 
0.000000e+00 0.000000e+00 0.000000e+00 
0.000000e+00 0.000000e+00 0.000000e+00 
0.000000e+00 0.000000e+00 0.000000e+00 
0.000000e+00 0.000000e+00 0.000000e+00 
0.000000e+00 0.000000e+00 0.000000e+00 
0.000000e+00 0.000000e+00 0.000000e+00 
0.000000e+00 0.000000e+00 0.000000e+00 
0.000000e+00 0.000000e+00 0.000000e+00 
0.000000e+00 0.000000e+00 0.000000e+00 
0.000000e+00 0.000000e+00 0.000000e+00 
0.000000e+00 0.000000e+00 0.000000e+00 
0.000000e+00 0.000000e+00 0.000000e+00 
0.000000e+00 0.000000e+00 0.000000e+00 
0.000000e+00 0.000000e+00 0.000000e+00 
0.000000e+00 0.000000e+00 0.000000e+00 
0.000000e+00 0.000000e+00 0.000000e+00 
0.000000e+00 0.000000e+00 0.000000e+00 
0.000000e+00 0.000000e+00 0.000000e+00 
0.000000e+00 0.000000e+00 0.000000e+00 
0.000000e+00 0.000000e+00 0.000000e+00 
0.000000e+00 0.000000e+00 0.000000e+00 
0.000000e+00 0.000000e+00 0.000000e+00 
0.000000e+00 0.000000e+00 0.000000e+00 
0.000000e+00 0.000000e+00 0.000000e+00 
0.000000e+00 0.000000e+00 0.000000e+00 
0.000000e+00 0.000000e+00 0.000000e+00 
0.000000e+00 0.000000e+00 0.000000e+00 
0.000000e+00 0.000000e+00 0.000000e+00 
0.000000e+00 0.000000e+00 0.000000e+00 
0.000000e+00 0.000000e+00 0.000000e+00 
0.000000e+00 0.000000e+00 0.000000e+00 
0.000000e+00 0.000000e+00 0.000000e+00 
0.000000e+00 0.000000e+00 0.000000e+00 
0.000000e+00 0.000000e+00 0.000000e+00 
0.000000e+00 0.000000e+00 0.000000e+00 
0.000000e+00 0.000000e+00 0.000000e+00 
0.000000e+00 0.000000e+00 0.000000e+00 
0.000000e+00 0.000000e+00 0.000000e+00 
0.000000e+00 0.000000e+00 0.000000e+00 
0.000000e+00 0.000000e+00 0.000000e+00 
0.000000e+00 0.000000e+00 0.000000e+00 
0.000000e+00 0.000000e+00 0.000000e+00 
0.000000e+00 0.000000e+00 0.000000e+00 
0.000000e+00 0.000000e+00 0.000000e+00 
0.000000e+00 0.000000e+00 0.000000e+00 
0.000000e+00 0.000000e+00 0.000000e+00 
0.000000e+00 0.000000e+00 0.000000e+00 
0.000000e+00 0.000000e+00 0.000000e+00 
0.000000e+00 0.000000e+00 0.000000e+00 
0.000000e+00 0.000000e+00 0.000000e+00 
0.000000e+00 0.000000e+00 0.000000e+00 
0.000000e+00 0.000000e+00 0.000000e+00 
0.000000e+00 0.000000e+00 0.000000e+00 
0.000000e+00 0.000000e+00 0.000000e+00 
0.000000e+00 0.000000e+00 0.000000e+00 
0.000000e+00 0.000000e+00 0.000000e+00 
0.000000e+00 0.000000e+00 0.000000e+00 
0.000000e+00 0.000000e+00 0.000000e+00 
0.000000e+00 0.000000e+00 0.000000e+00 
0.000000e+00 0.000000e+00 0.000000e+00 
0.000000e+00 0.000000e+00 0.000000e+00 
0.000000e+00 0.000000e+00 0.000000e+00 
0.000000e+00 0.000000e+00 0.000000e+00 
0.000000e+00 0.000000e+00 0.000000e+00 
0.000000e+00 0.000000e+00 0.000000e+00 
0.000000e+00 0.000000e+00 0.000000e+00 
0.000000e+00 0.000000e+00 0.000000e+00 
0.000000e+00 0.000000e+00 0.000000e+00 
0.000000e+00 0.000000e+00 0.000000e+00 
0.000000e+00 0.000000e+00 0.000000e+00 
0.000000e+00 0.000000e+00 0.000000e+00 
0.000000e+00 0.000000e+00 0.000000e+00 
0.000000e+00 0.000000e+00 0.000000e+00 
0.000000e+00 0.000000e+00 0.000000e+00 
0.000000e+00 0.000000e+00 0.000000e+00 
0.000000e+00 0.000000e+00 0.000000e+00 
0.000000e+00 0.000000e+00 0.000000e+00 
0.000000e+00 0.000000e+00 0.000000e+00 
0.000000e+00 0.000000e+00 0.000000e+00 
0.000000e+00 0.000000e+00 0.000000e+00 
0.000000e+00 0.000000e+00 0.000000e+00 
0.000000e+00 0.000000e+00 0.000000e+00 
0.000000e+00 0.000000e+00 0.000000e+00 
0.000000e+00 0.000000e+00 0.000000e+00 
0.000000e+00 0.000000e+00 0.000000e+00 
0.000000e+00 0.000000e+00 0.000000e+00 
0.000000e+00 0.000000e+00 0.000000e+00 
0.000000e+00 0.000000e+00 0.000000e+00 
0.000000e+00 0.000000e+00 0.000000e+00 
0.000000e+00 0.000000e+00 0.000000e+00 
0.000000e+00 0.000000e+00 0.000000e+00 
0.000000e+00 0.000000e+00 0.000000e+00 
0.000000e+00 0.000000e+00 0.000000e+00 
0.000000e+00 0.000000e+00 0.000000e+00 
0.000000e+00 0.000000e+00 0.000000e+00 
0.000000e+00 0.000000e+00 0.000000e+00 
0.000000e+00 0.000000e+00 0.000000e+00 
0.000000e+00 0.000000e+00 0.000000e+00 
0.000000e+00 0.000000e+00 0.000000e+00 
0.000000e+00 0.000000e+00 0.000000e+00 
0.000000e+00 0.000000e+00 0.000000e+00 
0.000000e+00 0.000000e+00 0.000000e+00 
0.000000e+00 0.000000e+00 0.000000e+00 
0.000000e+00 0.000000e+00 0.000000e+00 
0.000000e+00 0.000000e+00 0.000000e+00 
0.000000e+00 0.000000e+00 0.000000e+00 
0.000000e+00 0.000000e+00 0.000000e+00 
0.000000e+00 0.000000e+00 0.000000e+00 
0.000000e+00 0.000000e+00 0.000000e+00 
0.000000e+00 0.000000e+00 0.000000e+00 
0.000000e+00 0.000000e+00 0.000000e+00 
0.000000e+00 0.000000e+00 0.000000e+00 
0.000000e+00 0.000000e+00 0.000000e+00 
0.000000e+00 0.000000e+00 0.000000e+00 
0.000000e+00 0.000000e+00 0.000000e+00 
0.000000e+00 0.000000e+00 0.000000e+00 
0.000000e+00 0.000000e+00 0.000000e+00 
0.000000e+00 0.000000e+00 0.000000e+00 
0.000000e+00 0.000000e+00 0.000000e+00 
0.000000e+00 0.000000e+00 0.000000e+00 
0.000000e+00 0.000000e+00 0.000000e+00 
0.000000e+00 0.000000e+00 0.000000e+00 
0.000000e+00 0.000000e+00 0.000000e+00 
0.000000e+00 0.000000e+00 0.000000e+00 
0.000000e+00 0.000000e+00 0.000000e+00 
0.000000e+00 0.000000e+00 0.000000e+00 
0.000000e+00 0.000000e+00 0.000000e+00 
0.000000e+00 0.000000e+00 0.000000e+00 
0.000000e+00 0.000000e+00 0.000000e+00 
0.000000e+00 0.000000e+00 0.000000e+00 
0.000000e+00 0.000000e+00 0.000000e+00 
0.000000e+00 0.000000e+00 0.000000e+00 
0.000000e+00 0.000000e+00 0.000000e+00 
0.000000e+00 0.000000e+00 0.000000e+00 
0.000000e+00 0.000000e+00 0.000000e+00 
0.000000e+00 0.000000e+00 0.000000e+00 
0.000000e+00 0.000000e+00 0.000000e+00 
0.000000e+00 0.000000e+00 0.000000e+00 
0.000000e+00 0.000000e+00 0.000000e+00 
0.000000e+00 0.000000e+00 0.000000e+00 
0.000000e+00 0.000000e+00 0.000000e+00 
0.000000e+00 0.000000e+00 0.000000e+00 
0.000000e+00 0.000000e+00 0.000000e+00 
0.000000e+00 0.000000e+00 0.000000e+00 
0.000000e+00 0.000000e+00 0.000000e+00 
0.000000e+00 0.000000e+00 0.000000e+00 
0.000000e+00 0.000000e+00 0.000000e+00 
0.000000e+00 0.000000e+00 0.000000e+00 
0.000000e+00 0.000000e+00 0.000000e+00 
0.000000e+00 0.000000e+00 0.000000e+00 
0.000000e+00 0.000000e+00 0.000000e+00 
0.000000e+00 0.000000e+00 0.000000e+00 
0.000000e+00 0.000000e+00 0.000000e+00 
0.000000e+00 0.000000e+00 0.000000e+00 
0.000000e+00 0.000000e+00 0.000000e+00 
0.000000e+00 0.000000e+00 0.000000e+00 
0.000000e+00 0.000000e+00 0.000000e+00 
0.000000e+00 0.000000e+00 0.000000e+00 
0.000000e+00 0.000000e+00 0.000000e+00 
0.000000e+00 0.000000e+00 0.000000e+00 
0.000000e+00 0.000000e+00 0.000000e+00 
0.000000e+00 0.000000e+00 0.000000e+00 
0.000000e+00 0.000000e+00 0.000000e+00 
0.000000e+00 0.000000e+00 0.000000e+00 
0.000000e+00 0.000000e+00 0.000000e+00 
0.000000e+00 0.000000e+00 0.000000e+00 
0.000000e+00 0.000000e+00 0.000000e+00 
0.000000e+00 0.000000e+00 0.000000e+00 
0.000000e+00 0.000000e+00 0.000000e+00 
0.000000e+00 0.000000e+00 0.000000e+00 
0.000000e+00 0.000000e+00 0.000000e+00 
0.000000e+00 0.000000e+00 0.000000e+00 
0.000000e+00 0.000000e+00 0.000000e+00 
0.000000e+00 0.000000e+00 0.000000e+00 
0.000000e+00 0.000000e+00 0.000000e+00 
0.000000e+00 0.000000e+00 0.000000e+00 
0.000000e+00 0.000000e+00 0.000000e+00 
0.000000e+00 0.000000e+00 0.000000e+00 
0.000000e+00 0.000000e+00 0.000000e+00 
0.000000e+00 0.000000e+00 0.000000e+00 
0.000000e+00 0.000000e+00 0.000000e+00 
0.000000e+00 0.000000e+00 0.000000e+00 
0.000000e+00 0.000000e+00 0.000000e+00 
0.000000e+00 0.000000e+00 0.000000e+00 
0.000000e+00 0.000000e+00 0.000000e+00 
0.000000e+00 0.000000e+00 0.000000e+00 
0.000000e+00 0.000000e+00 0.000000e+00 
0.000000e+00 0.000000e+00 0.000000e+00 
0.000000e+00 0.000000e+00 0.000000e+00 
0.000000e+00 0.000000e+00 0.000000e+00 
0.000000e+00 0.000000e+00 0.000000e+00 
0.000000e+00 0.000000e+00 0.000000e+00 
0.000000e+00 0.000000e+00 0.000000e+00 
0.000000e+00 0.000000e+00 0.000000e+00 
0.000000e+00 0.000000e+00 0.000000e+00 
0.000000e+00 0.000000e+00 0.000000e+00 
0.000000e+00 0.000000e+00 0.000000e+00 
0.000000e+00 0.000000e+00 0.000000e+00 
0.000000e+00 0.000000e+00 0.000000e+00 
0.000000e+00 0.000000e+00 0.000000e+00 
0.000000e+00 0.000000e+00 0.000000e+00 
0.000000e+00 0.000000e+00 0.000000e+00 
0.000000e+00 0.000000e+00 0.000000e+00 
0.000000e+00 0.000000e+00 0.000000e+00 
0.000000e+00 0.000000e+00 0.000000e+00 
0.000000e+00 0.000000e+00 0.000000e+00 
0.000000e+00 0.000000e+00 0.000000e+00 
0.000000e+00 0.000000e+00 0.000000e+00 
0.000000e+00 0.000000e+00 0.000000e+00 
0.000000e+00 0.000000e+00 0.000000e+00 