# vtk DataFile Version 3.1
*description-name of input file* step:401 
ASCII
DATASET UNSTRUCTURED_GRID
POINTS 1605 FLOAT
-6.997615e-09 -5.908070e-09 2.414078e-10
-7.580069e-09 -4.683756e-09 -5.904602e-10
-6.310487e-09 -5.186447e-09 -7.277256e-10
-7.587152e-09 -4.252158e-09 1.915793e-09
-5.387101e-09 -5.972860e-09 -1.010370e-10
1.207192e-08 7.118690e-09 -1.075718e-08
1.374044e-08 7.375566e-09 -1.071052e-08
1.268816e-08 5.969096e-09 -1.182414e-08
-5.931949e-09 -6.162161e-09 1.043690e-09
-6.108864e-09 -3.113000e-09 8.006467e-10
-4.297948e-09 -4.513681e-09 -1.252182e-09
-6.359613e-09 -3.005961e-09 -6.226076e-10
-5.552690e-09 -5.337827e-09 2.493190e-09
-5.886919e-09 -3.699089e-09 1.846489e-09
-5.224678e-09 -3.755189e-09 -1.496621e-09
-7.212812e-09 -4.033711e-09 3.317480e-09
-3.307955e-09 -5.475743e-09 1.477718e-10
-6.832252e-09 -1.413537e-09 1.344758e-10
-5.493243e-09 -1.643972e-09 -1.069497e-09
-3.920987e-09 -3.927124e-09 -3.754907e-09
-5.234207e-09 -2.724317e-09 -2.769342e-09
-4.299032e-09 -2.046726e-09 -3.878377e-09
-6.218219e-09 -2.624839e-09 2.455362e-09
-6.025098e-09 2.362375e-10 -2.350470e-09
-6.427357e-09 -5.604253e-11 -8.170648e-10
-3.647766e-09 -4.738598e-09 1.834174e-09
-7.113704e-09 -1.710744e-09 1.493705e-09
-5.854505e-09 -3.709462e-09 4.305247e-09
-4.203316e-09 -2.037416e-09 -4.195365e-10
-7.528343e-09 -2.058366e-09 3.453636e-09
-2.389492e-09 -4.549707e-09 -2.369325e-09
-2.733391e-09 -2.719478e-09 -3.663819e-09
-2.098357e-09 -4.000552e-09 -3.431282e-09
-3.471263e-09 -3.452049e-09 -5.833772e-10
-5.931796e-09 -2.435094e-09 4.330170e-09
-4.424297e-09 -9.255206e-10 -2.510988e-09
-6.274310e-09 -5.931539e-10 2.051410e-09
-4.846982e-09 -4.419640e-10 3.512743e-10
-3.126853e-09 -1.811968e-09 -2.029534e-09
-4.068004e-09 -4.023828e-09 3.911342e-09
-5.027160e-09 3.487437e-10 -8.174987e-10
-3.914893e-09 9.597549e-10 -4.821658e-09
-3.888259e-09 3.189462e-10 -2.945487e-09
-4.721873e-09 1.129408e-09 -3.309807e-09
-4.035901e-09 -2.721850e-09 2.010077e-09
-1.589266e-09 -3.060474e-09 -6.602825e-10
-4.648583e-09 2.572429e-09 -3.843347e-09
-3.040663e-09 -1.530583e-09 -3.539482e-09
-3.310441e-09 -1.011246e-10 -2.979418e-09
-1.671513e-09 -1.424904e-09 -3.534320e-09
-3.658955e-09 4.684396e-10 -9.091656e-10
-2.970825e-09 -2.003864e-09 1.082440e-10
-3.093967e-09 1.701654e-10 -4.723812e-09
-1.809177e-09 -2.110661e-09 -1.887759e-09
-3.938587e-09 -2.752768e-10 8.134573e-09
-2.180471e-09 -1.697746e-09 7.468126e-09
-1.860363e-09 2.321993e-10 7.378041e-09
-1.480801e-09 8.836384e-10 -4.105431e-09
-5.772709e-09 -2.931983e-09 5.992144e-09
-4.159888e-09 2.290387e-09 -2.364585e-09
-3.497659e-09 -2.752093e-09 3.626228e-09
-4.487046e-09 -6.953192e-10 2.445352e-09
-3.903141e-09 -1.582894e-09 1.149353e-09
-5.434489e-09 2.280673e-09 -2.755216e-10
-4.783891e-09 7.226673e-10 1.361707e-09
-6.546042e-09 1.749331e-09 1.662245e-09
-4.594194e-09 -4.395456e-09 5.862423e-09
-4.776211e-09 -3.622234e-09 6.881446e-09
-6.051785e-09 -1.648376e-09 6.714415e-09
-1.989817e-09 1.779465e-09 2.007803e-09
1.000467e-10 2.319581e-09 3.701727e-09
-1.024590e-09 1.723343e-09 8.593144e-10
-4.433579e-09 7.980023e-10 -1.214113e-09
-3.048170e-09 -4.468840e-09 5.414374e-09
1.059316e-09 2.310798e-10 3.691665e-09
8.115193e-10 1.045705e-09 4.208193e-09
-5.630932e-11 7.036961e-10 5.481633e-09
-5.444009e-09 3.297253e-09 1.020612e-09
-4.781289e-09 -1.619254e-09 5.425078e-09
-1.148790e-09 7.113653e-11 -1.485347e-09
-4.517358e-09 -2.259137e-09 4.507470e-09
-3.348584e-09 8.171252e-12 4.273159e-10
-2.242667e-09 -4.217508e-10 -2.246361e-11
-5.826901e-09 2.620524e-09 3.926882e-09
-2.401761e-09 -5.213531e-09 3.729415e-09
-2.974836e-09 2.760244e-09 -3.404202e-09
-2.097255e-09 -3.858491e-09 2.553331e-09
-5.865287e-09 -3.945738e-10 5.428411e-09
-2.561172e-09 1.827061e-09 -2.212491e-09
-4.411728e-09 -1.517951e-10 4.664680e-09
-2.744690e-09 -2.864230e-09 4.817233e-09
-5.798012e-09 -6.006079e-10 4.002239e-09
-3.295169e-09 -9.559778e-10 4.154564e-09
-7.534422e-10 -1.402775e-09 1.082246e-10
-4.427281e-09 3.624327e-09 2.323793e-09
-3.120150e-09 2.845518e-09 -8.918287e-10
-2.275380e-10 -1.461005e-09 -3.300516e-09
2.208612e-10 -2.893007e-09 -2.643724e-09
-4.051272e-09 -2.469519e-09 7.940599e-09
-5.427453e-09 -1.437715e-09 8.016192e-09
-5.354663e-09 3.007707e-10 7.707163e-09
8.893664e-10 2.062793e-09 2.964672e-09
-3.483313e-09 1.363914e-09 8.379108e-10
-3.538650e-09 2.815640e-09 5.453729e-10
-6.367691e-09 1.428033e-09 5.072832e-09
-4.777671e-09 1.204609e-10 3.718739e-09
-3.696299e-09 -2.497983e-09 6.186447e-09
5.934106e-11 -9.704474e-11 -3.159037e-09
-1.315443e-09 -2.803636e-09 3.642082e-09
-4.856524e-09 1.276622e-09 6.683875e-09
-3.572377e-09 8.010323e-10 3.361681e-09
-4.341826e-09 2.117774e-09 5.368922e-09
-4.305802e-09 1.699912e-09 3.067983e-09
-3.299070e-10 -3.894107e-09 2.600675e-09
7.912658e-10 -3.714964e-09 4.134989e-09
-4.066276e-09 2.471998e-09 1.732879e-09
3.120128e-10 -2.020711e-09 -6.570727e-10
-4.046764e-09 2.947648e-09 3.965253e-09
1.241714e-09 -1.123189e-09 -2.783531e-09
-6.023833e-10 -4.004066e-09 6.244882e-09
-7.030268e-10 -6.486238e-10 1.141712e-09
-2.307458e-09 -3.375991e-09 6.541028e-09
-1.900856e-09 -2.183861e-09 5.449853e-09
-1.498095e-09 -3.026694e-10 2.864495e-09
-1.425642e-09 -1.719737e-09 4.311824e-09
-2.499095e-09 1.377588e-09 3.657503e-09
1.449152e-09 -1.005461e-09 -1.349810e-09
5.259018e-10 8.993453e-10 -1.282929e-09
1.456291e-09 -4.257508e-10 5.829242e-09
-3.298523e-09 1.110123e-09 5.921766e-09
8.906581e-10 8.272097e-10 -2.982390e-09
8.443359e-10 -4.510156e-09 2.777391e-09
-8.546298e-10 -6.391973e-10 3.971525e-09
9.473489e-10 -1.167584e-09 -1.896158e-10
5.664171e-10 -3.845330e-09 5.401351e-09
-3.142692e-09 8.664213e-10 7.258485e-09
-2.602517e-09 2.150359e-09 5.321541e-09
-1.253133e-09 -1.752229e-09 6.493002e-09
1.890276e-09 -4.609428e-09 3.693335e-09
2.110413e-09 -3.645821e-09 2.369888e-09
-1.602471e-10 -1.493482e-09 2.665785e-09
-2.560589e-10 -2.860723e-09 6.976025e-09
1.481441e-09 -1.634186e-09 1.685144e-09
2.001367e-09 -8.389512e-11 -2.204302e-09
-8.648755e-10 1.607896e-09 3.612140e-09
-6.775747e-10 -1.364646e-09 7.872491e-09
1.601958e-09 3.564866e-10 -9.880133e-11
2.278690e-09 -3.414052e-09 4.761307e-09
2.865692e-09 -4.068157e-09 3.815111e-09
1.822907e-09 1.557296e-09 -1.263703e-09
5.473906e-10 -2.263095e-09 6.181672e-09
-1.873692e-09 6.692133e-10 5.149471e-09
2.918758e-09 -3.831777e-10 6.454899e-10
2.668348e-09 3.102403e-10 -3.838628e-09
1.706230e-09 -2.602534e-09 4.917542e-09
3.682621e-09 -2.883494e-09 2.619166e-09
3.268375e-09 7.120674e-10 -2.181709e-09
2.826736e-09 2.529205e-09 -2.508337e-09
2.822901e-09 2.031693e-09 -4.103100e-09
3.732249e-09 8.882800e-10 -3.964990e-09
4.133204e-09 1.366825e-09 -5.151945e-09
1.374308e-09 -1.359867e-09 4.206581e-09
6.296940e-10 -8.526487e-10 7.405005e-09
2.700476e-09 -5.635801e-10 2.039424e-09
1.086413e-09 1.504427e-09 5.037611e-10
2.143193e-09 1.667120e-09 -2.138628e-10
4.553220e-09 1.404095e-09 -3.410910e-09
2.810181e-10 1.166640e-09 7.176755e-09
1.328280e-09 1.099753e-09 2.015739e-09
2.889726e-09 -2.277769e-09 3.599821e-09
2.265083e-09 -4.050603e-10 3.405331e-09
3.612523e-09 1.544779e-11 1.858924e-09
4.504267e-09 2.516311e-09 -3.468953e-09
3.062659e-09 8.653753e-10 -8.582564e-10
3.282027e-09 1.939025e-09 -1.579227e-09
4.860344e-09 2.337193e-09 -4.977543e-09
3.270663e-09 8.147251e-10 6.400331e-10
5.322965e-09 1.645632e-09 -5.986232e-09
5.355339e-09 1.463711e-09 -4.661353e-09
3.521212e-09 1.084079e-11 -3.871715e-10
3.076050e-09 8.832080e-10 2.617611e-09
6.394167e-09 1.388306e-09 -5.953714e-09
5.742137e-09 2.808899e-09 -3.961085e-09
7.029986e-09 2.897086e-09 -6.623205e-09
6.747072e-09 2.247424e-09 -4.787367e-09
7.268853e-09 2.033356e-09 -6.432084e-09
6.232342e-09 3.609307e-09 -5.004253e-09
7.475282e-09 3.555527e-09 -5.682661e-09
8.608038e-09 2.855194e-09 -5.913318e-09
8.403692e-09 2.978181e-09 -7.109702e-09
8.364723e-09 4.181750e-09 -7.065286e-09
9.347640e-09 3.190365e-09 -6.861014e-09
1.038892e-08 4.348479e-09 -7.801982e-09
1.025346e-08 4.972476e-09 -7.993022e-09
9.575579e-09 3.817062e-09 -6.253942e-09
1.104715e-08 3.938243e-09 -6.913115e-09
1.019763e-08 4.700483e-09 -6.468770e-09
1.135008e-08 4.993138e-09 -8.708560e-09
1.141302e-08 6.138235e-09 -7.702165e-09
1.122135e-08 5.294662e-09 -6.704582e-09
1.229560e-08 4.811145e-09 -8.451078e-09
1.130447e-08 6.623135e-09 -9.880475e-09
1.159253e-08 5.846432e-09 -1.046865e-08
1.120163e-08 6.103497e-09 -8.953793e-09
1.216724e-08 4.900397e-09 -9.155470e-09
1.185432e-08 5.785321e-09 -7.314603e-09
1.266748e-08 5.694507e-09 -8.116140e-09
1.335286e-08 5.057084e-09 -9.113221e-09
1.378402e-08 5.383195e-09 -1.048881e-08
1.209339e-08 7.151988e-09 -8.791644e-09
1.433673e-08 6.512221e-09 -1.011599e-08
1.366221e-08 6.258941e-09 -8.677881e-09
1.349890e-08 7.570884e-09 -9.126376e-09
1.983050e-09 1.612208e-09 -7.387829e-10
-4.413742e-09 -3.045877e-09 7.411023e-09
7.149420e-09 2.465221e-09 -6.527645e-09
7.252634e-09 3.226306e-09 -6.152933e-09
1.238004e-08 6.543893e-09 -1.129066e-08
2.178538e-09 1.159576e-09 5.718971e-10
-4.343058e-09 4.085917e-10 -8.633322e-10
8.041660e-09 3.205361e-09 -5.797990e-09
4.553561e-10 1.569956e-10 7.290880e-09
-3.114440e-10 4.852409e-10 -1.384138e-09
-3.218647e-09 -9.565465e-10 -2.504476e-09
7.716839e-09 2.937633e-09 -6.866454e-09
-4.440880e-09 1.709898e-09 -2.837196e-09
-5.664967e-09 1.235999e-09 1.511976e-09
-2.667812e-11 1.326801e-09 3.910166e-09
1.415299e-09 -8.928086e-10 5.017911e-09
1.032119e-08 4.660477e-09 -7.897502e-09
-4.572833e-09 -3.841156e-09 -2.625764e-09
-3.802463e-09 2.643819e-09 1.139126e-09
-3.121174e-09 -2.808161e-09 4.221731e-09
-5.995025e-09 2.523292e-09 1.341428e-09
1.113425e-08 4.616452e-09 -6.808849e-09
1.123544e-10 9.351680e-10 6.329194e-09
2.926214e-10 4.011503e-10 -2.220983e-09
4.557830e-10 1.682643e-09 3.954960e-09
-4.649324e-09 -1.939196e-09 4.966274e-09
-1.608149e-09 -2.493749e-09 4.545967e-09
-3.982965e-09 3.219984e-09 1.434583e-09
-2.202452e-09 -2.072191e-09 -3.599069e-09
1.321430e-08 6.672331e-09 -1.126733e-08
[...]
POINT_DATA 1605
VECTORS vector_force float
-9.333274e+01 -4.198836e+02 -2.595400e+02 
8.308585e+01 -1.115637e+02 3.695777e+02 
-6.537166e+02 8.041339e+01 -2.377898e+01 
4.698905e+02 -1.027137e+02 1.986071e+02 
-7.868930e+01 4.850373e+01 3.944958e+02 
4.739270e+02 8.998114e+01 -6.256121e+02 
3.033651e+01 -1.857082e+01 -3.456480e+02 
4.625992e+02 7.560874e+02 6.766207e+02 
4.249060e+02 -9.806464e+01 -1.344064e+02 
8.165710e+02 -1.169734e+01 2.300363e+02 
3.336903e+02 -4.241912e+02 -3.356579e+01 
4.192062e+02 1.898823e+02 4.003479e+02 
-2.486003e+02 -8.514477e+01 -4.070770e+02 
-1.440247e+02 7.570731e+00 -4.988858e+02 
6.550950e+02 -1.794629e+02 2.583551e+02 
1.766944e+02 6.410982e+01 -3.608599e+01 
9.848962e+02 3.581466e+02 4.574870e+02 
-1.704867e+02 6.360831e+02 -2.957207e+02 
7.620378e+01 -3.722345e+01 -4.586499e+01 
6.537883e+02 3.994693e+02 -9.085479e+01 
1.090232e+03 -1.422102e+02 3.807715e+02 
9.056249e+02 -3.609532e+02 -1.896894e+02 
4.511926e+02 1.037561e+02 1.730650e+02 
1.917959e+03 -1.571277e+01 4.476036e+02 
1.370449e+03 9.658651e+02 -3.552072e+02 
-3.073888e+02 5.421008e+02 5.761631e+02 
1.467926e+02 6.502742e+02 -1.703765e+02 
-1.294522e+02 3.769293e+01 4.292285e+02 
-1.342428e+01 1.930900e+02 -1.123564e+02 
8.966474e+01 -6.766686e+02 5.129831e+02 
3.898478e+02 -3.802538e+02 7.637902e+02 
6.759436e+02 -6.711638e+01 2.355349e+02 
4.679862e+02 6.502123e+02 -2.101947e+02 
3.535884e+02 3.609250e+02 1.897783e+02 
4.628883e+02 -3.170338e+01 6.146812e+01 
3.882764e+02 -8.404972e+02 6.049093e+02 
1.166497e+02 -5.796569e+01 1.088363e+03 
3.421624e+02 -3.704116e+02 -3.115766e+02 
-8.298279e+01 4.163554e+02 3.610205e+02 
1.417810e+02 -5.257203e+02 1.318986e+02 
5.799686e+02 1.800694e+02 3.382910e+02 
4.681857e+02 -5.669890e+02 -1.709391e+02 
4.736651e+02 -3.188319e+02 7.461282e+01 
8.092357e+02 7.652632e+01 7.521443e+02 
4.318635e+02 -2.286626e+02 1.316001e+02 
-1.246793e+02 1.931316e+02 4.788046e+02 
-2.740021e+02 5.763649e+02 -3.328396e+02 
-3.923381e+02 4.764802e+02 1.793721e+02 
-3.366928e+02 -4.127160e+02 -9.048606e+01 
-3.486590e+02 1.990531e+02 4.135881e+02 
-2.839629e+02 4.894186e+02 -6.864910e+02 
1.241559e+02 2.750032e+02 -1.499858e+02 
1.033291e+03 7.368135e+02 -5.258926e+02 
1.270247e+02 -2.314462e+02 1.736771e+01 
-8.354747e+01 -5.690586e+02 8.327185e+02 
6.759351e+02 -7.175308e+02 -1.268854e+02 
4.191931e+02 -7.615219e+02 9.623010e+02 
-1.068702e+02 1.265270e+03 6.687924e+02 
-3.414129e+02 -2.628172e+02 8.027338e+02 
-2.842217e+02 2.293164e+02 2.229196e+02 
-8.874722e+01 4.280062e+01 -3.469089e+01 
5.580129e+02 -2.135686e+02 -2.663341e+02 
1.419130e+02 -3.252817e+02 1.276018e+02 
3.126023e+02 -5.064740e+02 -1.411396e+02 
-3.045390e+01 2.475001e+00 -1.052497e+03 
7.233887e+02 5.972860e+02 8.477948e+01 
-1.038626e+03 -1.700560e+02 7.224224e+01 
-4.777546e+02 -5.013928e+02 7.306755e+02 
-1.212070e+02 -3.537066e+02 -5.079482e+02 
-4.624488e+02 -3.119704e+02 -5.750295e+02 
6.631574e+02 -4.368622e+02 -9.423710e+02 
-7.255845e+02 -3.930448e+02 -9.867225e+02 
-1.845353e+02 -4.631185e+01 -4.074360e+01 
3.472757e+02 -1.180611e+02 -3.023538e+02 
-1.189879e+02 3.467538e+02 -4.646575e+02 
-5.352444e+02 -4.568156e+02 -8.324411e+02 
-4.540124e+01 -1.247693e+03 8.155772e+00 
7.814522e+01 -5.494221e+02 -3.984017e+02 
-1.004655e+02 -5.227887e+02 9.063182e+00 
1.498966e+02 -5.653162e+02 1.906351e+02 
3.185931e+02 -2.181530e+02 -1.336263e+02 
8.821017e+01 -5.574567e+02 -6.809915e+02 
6.208620e+01 1.197778e+02 -2.484673e+02 
1.061622e+03 6.145935e+01 -4.672874e+02 
3.092924e+02 9.387618e+01 -4.227180e+02 
-5.503246e+02 1.944010e+02 4.699547e+02 
6.600710e+02 -2.765031e+01 -6.628418e+02 
3.940501e+02 -2.999363e+02 5.151054e+01 
-3.313401e+01 1.644132e+02 2.550907e+02 
3.129853e+02 -2.961607e+02 -2.819089e+02 
6.321167e+02 -5.062604e+02 -7.433310e+02 
-1.388803e+00 6.993825e+02 1.325786e+02 
5.196128e+02 -1.139386e+02 -3.593594e+02 
-5.597323e+02 5.713791e+01 5.939398e+02 
-2.396560e+02 -4.021219e+02 -1.317752e+01 
4.032297e+02 3.552204e+02 5.318220e+02 
-7.790015e+02 4.873976e+01 -7.091116e+01 
-2.065803e+02 -5.414684e+02 1.449137e+02 
-2.544563e+02 -6.815290e+02 -3.399671e+02 
-5.625756e+02 -1.339411e+03 -3.469531e+02 
5.554479e+02 -8.980979e+02 3.330350e+02 
-3.065750e+02 -6.398525e+02 -3.920108e+02 
-3.355954e+02 -1.528303e+02 -1.239219e+03 
2.963961e+02 2.621822e+02 -2.303793e+02 
4.949588e+02 -2.615323e+02 -2.625789e+02 
2.913227e+02 1.669569e+01 -2.241849e+02 
2.035235e+02 -9.729163e+01 -2.595537e+02 
-4.549479e+01 -1.859837e+02 1.100489e+02 
-5.368826e+01 1.844479e+02 -9.338425e+02 
-1.562802e+02 -1.080015e+03 4.645814e+01 
-1.084055e+02 -6.079435e+02 9.147359e+01 
-1.885324e+01 -3.746777e+02 2.636575e+02 
5.070902e+02 1.746978e+02 -4.561595e+02 
4.881538e+02 5.589318e+02 -7.420310e+02 
5.868578e+01 -7.046545e+01 -5.193714e+02 
-5.358570e+02 1.404735e+02 -1.208883e+02 
1.897349e+02 -1.552338e+02 -3.183746e+01 
8.849006e+01 1.781898e+02 -2.562773e+02 
1.973141e+02 8.308140e+01 -5.535897e+02 
3.540854e+02 -1.091927e+02 4.661894e+02 
-8.184712e+01 -3.675601e+02 -1.707676e+02 
-3.131568e+02 -1.137768e+03 -3.681779e+02 
7.210099e+02 -2.537685e+02 1.314987e+02 
-4.006292e+02 4.644338e+01 4.855066e+02 
4.340289e+02 -1.889433e+01 -1.173767e+02 
1.443760e+02 -3.690661e+02 3.868347e+02 
7.642706e+02 5.156874e+02 -1.834923e+02 
9.227933e+01 -1.132681e+02 3.161121e+01 
4.837786e+02 4.676671e+02 -3.191826e+02 
4.315896e+00 -4.006586e+02 4.878853e+01 
-3.568977e+02 -1.083333e+02 -2.995061e+02 
1.047365e+03 -1.032133e+02 -7.473190e+02 
3.202305e+02 2.929109e+02 -2.203557e+02 
-3.612997e+01 2.364013e+02 -7.771733e+02 
-2.095883e+02 6.560238e+01 2.107299e+02 
6.463116e+02 -1.052293e+03 -3.197603e+02 
2.760787e+02 -1.452507e+03 6.259989e+02 
8.334639e+02 -1.395947e+02 3.622176e+02 
6.984502e+01 7.491739e+02 -7.570739e+00 
8.603901e+02 -4.082796e+02 -1.699423e+02 
-4.931083e+01 -2.410947e+02 -9.234134e+02 
7.636978e+02 6.601333e+01 -1.063587e+03 
-1.196670e+02 -5.830979e+02 -9.678321e+02 
-9.232197e+01 9.112013e+01 -8.450775e+02 
6.725212e+02 2.446812e+02 -3.066483e+02 
8.682543e+02 -9.154173e+02 1.004530e+03 
-3.313685e+02 5.885986e+01 -9.615939e+01 
-4.786165e+02 -1.142107e+02 -6.338506e+02 
-1.056885e+03 2.461792e+02 2.291162e+02 
3.148077e+01 -1.340514e+02 -3.084376e+02 
-2.088285e+01 -9.901460e+01 -1.005082e+03 
-1.402534e+02 -4.092727e+02 -2.156704e+02 
-6.178659e+02 -1.673120e+02 -3.581257e+02 
3.592412e+02 -5.907910e+02 -3.219546e+02 
6.924508e+01 -3.630655e+02 -7.108147e+02 
5.992477e+02 -1.539496e+02 3.275246e+02 
5.085906e+02 -2.972590e+02 1.316134e+01 
-3.451633e+02 4.322233e+02 -1.415869e+03 
5.601415e+02 -1.191843e+03 -6.124470e+02 
7.314671e+02 -2.730167e+02 7.485124e+02 
5.836049e+02 -8.935521e+02 6.295463e+02 
-4.824561e+01 2.256609e+02 -2.741122e+02 
9.788196e+02 4.928060e+02 -1.836443e+02 
-2.917789e+02 -5.879299e+02 -2.086258e+02 
-3.713779e+02 -1.498771e+02 -2.593063e+02 
5.945689e+01 2.466005e+02 -2.458722e+02 
-1.541321e+02 -1.910809e+02 1.644909e+02 
-1.159464e+03 -6.139625e+02 5.890620e+02 
-4.820475e+01 -2.458165e+02 -2.803839e+02 
4.766281e+02 6.342811e+01 -7.947803e+02 
-4.092574e+02 3.917280e+02 -3.431447e+02 
-8.024696e+02 -4.126756e+01 2.067270e+02 
-5.069074e+02 -4.239996e+01 1.823192e+02 
-3.738690e+01 -4.334351e+01 -3.884134e+02 
-2.446164e+02 -3.005794e+02 -1.868267e+02 
4.565969e+01 -1.788272e+02 2.983698e+02 
-5.879338e+02 -8.569376e+01 -3.837662e+02 
-4.036658e+02 5.642531e+02 -3.686737e+02 
3.676204e+02 -5.014275e+02 -4.168879e+02 
-3.691746e+02 -4.436177e+02 -1.219690e+02 
2.783570e+02 7.672796e+02 -1.569242e+03 
-4.166366e+01 8.230319e+02 3.034149e+02 
4.057603e+02 -1.053672e+03 9.335048e+02 
3.540953e+02 3.538415e+02 -8.370588e+02 
8.587801e+02 4.659246e+02 3.730494e+01 
-6.476677e+02 -2.466140e+02 2.932195e+02 
4.625767e+02 2.198282e+02 -1.049735e+03 
-8.846941e+01 2.426579e+02 5.747869e+02 
-2.189862e+01 -3.436347e+02 1.573557e+02 
-7.123640e+02 4.714560e+02 -4.149863e+02 
8.562504e+00 7.518367e+02 3.745923e+02 
1.327260e+02 6.025570e+02 5.844146e+02 
7.490274e+02 -2.982375e+02 3.839111e+02 
8.869873e+01 -3.852010e+02 4.811567e+02 
-9.068527e+02 2.627456e+02 6.047748e+02 
7.659320e+02 4.795856e+02 6.145984e+02 
7.059196e+02 1.042825e+02 1.721267e+02 
1.331202e+02 -1.063121e+03 -1.224398e+03 
4.097644e+02 -7.165083e+02 1.909691e+02 
-8.952908e+02 -6.781259e+02 5.798817e+02 
1.397883e+02 -1.190060e+03 4.307308e+02 
6.222280e+02 1.944734e+02 -1.004308e+03 
7.817948e+02 -2.350209e+02 1.163551e+02 
6.239822e+02 -7.921556e+02 -1.481661e+02 
3.523809e+02 -9.606741e+02 -7.309891e+01 
-6.496266e+02 -4.236608e+02 -3.164479e+02 
-1.296407e+02 -9.176328e+02 9.915638e+02 
1.992621e+02 5.856966e+02 -3.512411e+02 
4.905988e+02 -4.492585e+02 -7.718587e+02 
-2.790239e+02 4.648919e+02 -1.817788e+01 
9.950602e+02 -4.992812e+02 -7.882653e+02 
1.224830e+02 4.688189e+01 2.785122e+02 
4.604295e+02 1.099472e+03 5.854260e+02 
0.000000e+00 0.000000e+00 0.000000e+00 
0.000000e+00 0.000000e+00 0.000000e+00 
0.000000e+00 0.000000e+00 0.000000e+00 
0.000000e+00 0.000000e+00 0.000000e+00 
0.000000e+00 0.000000e+00 0.000000e+00 
0.000000e+00 0.000000e+00 0.000000e+00 
0.000000e+00 0.000000e+00 0.000000e+00 
0.000000e+00 0.000000e+00 0.000000e+00 
0.000000e+00 0.000000e+00 0.000000e+00 
0.000000e+00 0.000000e+00 0.000000e+00 
0.000000e+00 0.000000e+00 0.000000e+00 
0.000000e+00 0.000000e+00 0.000000e+00 
0.000000e+00 0.000000e+00 0.000000e+00 
0.000000e+00 0.000000e+00 0.000000e+00 
0.000000e+00 0.000000e+00 0.000000e+00 
0.000000e+00 0.000000e+00 0.000000e+00 
0.000000e+00 0.000000e+00 0.000000e+00 
0.000000e+00 0.000000e+00 0.000000e+00 
0.000000e+00 0.000000e+00 0.000000e+00 
0.000000e+00 0.000000e+00 0.000000e+00 
0.000000e+00 0.000000e+00 0.000000e+00 
0.000000e+00 0.000000e+00 0.000000e+00 
0.000000e+00 0.000000e+00 0.000000e+00 
0.000000e+00 0.000000e+00 0.000000e+00 
0.000000e+00 0.000000e+00 0.000000e+00 
0.000000e+00 0.000000e+00 0.000000e+00 
0.000000e+00 0.000000e+00 0.000000e+00 
0.000000e+00 0.000000e+00 0.000000e+00 
0.000000e+00 0.000000e+00 0.000000e+00 
0.000000e+00 0.000000e+00 0.000000e+00 
0.000000e+00 0.000000e+00 0.000000e+00 
0.000000e+00 0.000000e+00 0.000000e+00 
0.000000e+00 0.000000e+00 0.000000e+00 
0.000000e+00 0.000000e+00 0.000000e+00 
0.000000e+00 0.000000e+00 0.000000e+00 
0.000000e+00 0.000000e+00 0.000000e+00 
0.000000e+00 0.000000e+00 0.000000e+00 
0.000000e+00 0.000000e+00 0.000000e+00 
0.000000e+00 0.000000e+00 0.000000e+00 
0.000000e+00 0.000000e+00 0.000000e+00 
0.000000e+00 0.000000e+00 0.000000e+00 
0.000000e+00 0.000000e+00 0.000000e+00 
0.000000e+00 0.000000e+00 0.000000e+00 
0.000000e+00 0.000000e+00 0.000000e+00 
0.000000e+00 0.000000e+00 0.000000e+00 
0.000000e+00 0.000000e+00 0.000000e+00 
0.000000e+00 0.000000e+00 0.000000e+00 
0.000000e+00 0.000000e+00 0.000000e+00 
0.000000e+00 0.000000e+00 0.000000e+00 
0.000000e+00 0.000000e+00 0.000000e+00 
0.000000e+00 0.000000e+00 0.000000e+00 
0.000000e+00 0.000000e+00 0.000000e+00 
0.000000e+00 0.000000e+00 0.000000e+00 
0.000000e+00 0.000000e+00 0.000000e+00 
0.000000e+00 0.000000e+00 0.000000e+00 
0.000000e+00 0.000000e+00 0.000000e+00 
0.000000e+00 0.000000e+00 0.000000e+00 
0.000000e+00 0.000000e+00 0.000000e+00 
0.000000e+00 0.000000e+00 0.000000e+00 
0.000000e+00 0.000000e+00 0.000000e+00 
0.000000e+00 0.000000e+00 0.000000e+00 
0.000000e+00 0.000000e+00 0.000000e+00 
0.000000e+00 0.000000e+00 0.000000e+00 
0.000000e+00 0.000000e+00 0.000000e+00 
0.000000e+00 0.000000e+00 0.000000e+00 
0.000000e+00 0.000000e+00 0.000000e+00 
0.000000e+00 0.000000e+00 0.000000e+00 
0.000000e+00 0.000000e+00 0.000000e+00 
0.000000e+00 0.000000e+00 0.000000e+00 
0.000000e+00 0.000000e+00 0.000000e+00 
0.000000e+00 0.000000e+00 0.000000e+00 
0.000000e+00 0.000000e+00 0.000000e+00 
0.000000e+00 0.000000e+00 0.000000e+00 
0.000000e+00 0.000000e+00 0.000000e+00 
0.000000e+00 0.000000e+00 0.000000e+00 
0.000000e+00 0.000000e+00 0.000000e+00 
0.000000e+00 0.000000e+00 0.000000e+00 
0.000000e+00 0.000000e+00 0.000000e+00 
0.000000e+00 0.000000e+00 0.000000e+00 
0.000000e+00 0.000000e+00 0.000000e+00 
0.000000e+00 0.000000e+00 0.000000e+00 
0.000000e+00 0.000000e+00 0.000000e+00 
0.000000e+00 0.000000e+00 0.000000e+00 
0.000000e+00 0.000000e+00 0.000000e+00 
0.000000e+00 0.000000e+00 0.000000e+00 
0.000000e+00 0.000000e+00 0.000000e+00 
0.000000e+00 0.000000e+00 0.000000e+00 
0.000000e+00 0.000000e+00 0.000000e+00 
0.000000e+00 0.000000e+00 0.000000e+00 
0.000000e+00 0.000000e+00 0.000000e+00 
0.000000e+00 0.000000e+00 0.000000e+00 
0.000000e+00 0.000000e+00 0.000000e+00 
0.000000e+00 0.000000e+00 0.000000e+00 
0.000000e+00 0.000000e+00 0.000000e+00 
0.000000e+00 0.000000e+00 0.000000e+00 
0.000000e+00 0.000000e+00 0.000000e+00 
0.000000e+00 0.000000e+00 0.000000e+00 
0.000000e+00 0.000000e+00 0.000000e+00 
0.000000e+00 0.000000e+00 0.000000e+00 
0.000000e+00 0.000000e+00 0.000000e+00 
0.000000e+00 0.000000e+00 0.000000e+00 
0.000000e+00 0.000000e+00 0.000000e+00 
0.000000e+00 0.000000e+00 0.000000e+00 
0.000000e+00 0.000000e+00 0.000000e+00 
0.000000e+00 0.000000e+00 0.000000e+00 
0.000000e+00 0.000000e+00 0.000000e+00 
0.000000e+00 0.000000e+00 0.000000e+00 
0.000000e+00 0.000000e+00 0.000000e+00 
0.000000e+00 0.000000e+00 0.000000e+00 
0.000000e+00 0.000000e+00 0.000000e+00 
0.000000e+00 0.000000e+00 0.000000e+00 
0.000000e+00 0.000000e+00 0.000000e+00 
0.000000e+00 0.000000e+00 0.000000e+00 
0.000000e+00 0.000000e+00 0.000000e+00 
0.000000e+00 0.000000e+00 0.000000e+00 
0.000000e+00 0.000000e+00 0.000000e+00 
0.000000e+00 0.000000e+00 0.000000e+00 
0.000000e+00 0.000000e+00 0.000000e+00 
0.000000e+00 0.000000e+00 0.000000e+00 
0.000000e+00 0.000000e+00 0.000000e+00 
0.000000e+00 0.000000e+00 0.000000e+00 
0.000000e+00 0.000000e+00 0.000000e+00 
0.000000e+00 0.000000e+00 0.000000e+00 
0.000000e+00 0.000000e+00 0.000000e+00 
0.000000e+00 0.000000e+00 0.000000e+00 
0.000000e+00 0.000000e+00 0.000000e+00 
0.000000e+00 0.000000e+00 0.000000e+00 
0.000000e+00 0.000000e+00 0.000000e+00 
0.000000e+00 0.000000e+00 0.000000e+00 
0.000000e+00 0.000000e+00 0.000000e+00 
0.000000e+00 0.000000e+00 0.000000e+00 
0.000000e+00 0.000000e+00 0.000000e+00 
0.000000e+00 0.000000e+00 0.000000e+00 
0.000000e+00 0.000000e+00 0.000000e+00 
0.000000e+00 0.000000e+00 0.000000e+00 
0.000000e+00 0.000000e+00 0.000000e+00 
0.000000e+00 0.000000e+00 0.000000e+00 
0.000000e+00 0.000000e+00 0.000000e+00 
0.000000e+00 0.000000e+00 0.000000e+00 
0.000000e+00 0.000000e+00 0.000000e+00 
0.000000e+00 0.000000e+00 0.000000e+00 
0.000000e+00 0.000000e+00 0.000000e+00 
0.000000e+00 0.000000e+00 0.000000e+00 
0.000000e+00 0.000000e+00 0.000000e+00 
0.000000e+00 0.000000e+00 0.000000e+00 
0.000000e+00 0.000000e+00 0.000000e+00 
0.000000e+00 0.000000e+00 0.000000e+00 
0.000000e+00 0.000000e+00 0.000000e+00 
0.000000e+00 0.000000e+00 0.000000e+00 
0.000000e+00 0.000000e+00 0.000000e+00 
0.000000e+00 0.000000e+00 0.000000e+00 
0.000000e+00 0.000000e+00 0.000000e+00 
0.000000e+00 0.000000e+00 0.000000e+00 
0.000000e+00 0.000000e+00 0.000000e+00 
0.000000e+00 0.000000e+00 0.000000e+00 
0.000000e+00 0.000000e+00 0.000000e+00 
0.000000e+00 0.000000e+00 0.000000e+00 
0.000000e+00 0.000000e+00 0.000000e+00 
0.000000e+00 0.000000e+00 0.000000e+00 
0.000000e+00 0.000000e+00 0.000000e+00 
0.000000e+00 0.000000e+00 0.000000e+00 
0.000000e+00 0.000000e+00 0.000000e+00 
0.000000e+00 0.000000e+00 0.000000e+00 
0.000000e+00 0.000000e+00 0.000000e+00 
0.000000e+00 0.000000e+00 0.000000e+00 
0.000000e+00 0.000000e+00 0.000000e+00 
0.000000e+00 0.000000e+00 0.000000e+00 
0.000000e+00 0.000000e+00 0.000000e+00 
0.000000e+00 0.000000e+00 0.000000e+00 
0.000000e+00 0.000000e+00 0.000000e+00 
0.000000e+00 0.000000e+00 0.000000e+00 
0.000000e+00 0.000000e+00 0.000000e+00 
0.000000e+00 0.000000e+00 0.000000e+00 
0.000000e+00 0.000000e+00 0.000000e+00 
0.000000e+00 0.000000e+00 0.000000e+00 
0.000000e+00 0.000000e+00 0.000000e+00 
0.000000e+00 0.000000e+00 0.000000e+00 
0.000000e+00 0.000000e+00 0.000000e+00 
0.000000e+00 0.000000e+00 0.000000e+00 
0.000000e+00 0.000000e+00 0.000000e+00 
0.000000e+00 0.000000e+00 0.000000e+00 
0.000000e+00 0.000000e+00 0.000000e+00 
0.000000e+00 0.000000e+00 0.000000e+00 
0.000000e+00 0.000000e+00 0.000000e+00 
0.000000e+00 0.000000e+00 0.000000e+00 
0.000000e+00 0.000000e+00 0.000000e+00 
0.000000e+00 0.000000e+00 0.000000e+00 
0.000000e+00 0.000000e+00 0.000000e+00 
0.000000e+00 0.000000e+00 0.000000e+00 
0.000000e+00 0.000000e+00 0.000000e+00 
0.000000e+00 0.000000e+00 0.000000e+00 
0.000000e+00 0.000000e+00 0.000000e+00 
0.000000e+00 0.000000e+00 0.000000e+00 
0.000000e+00 0.000000e+00 0.000000e+00 
0.000000e+00 0.000000e+00 0.000000e+00 
0.000000e+00 0.000000e+00 0.000000e+00 
0.000000e+00 0.000000e+00 0.000000e+00 
0.000000e+00 0.000000e+00 0.000000e+00 
0.000000e+00 0.000000e+00 0.000000e+00 
0.000000e+00 0.000000e+00 0.000000e+00 
0.000000e+00 0.000000e+00 0.000000e+00 
0.000000e+00 0.000000e+00 0.000000e+00 
0.000000e+00 0.000000e+00 0.000000e+00 
0.000000e+00 0.000000e+00 0.000000e+00 
0.000000e+00 0.000000e+00 0.000000e+00 
0.000000e+00 0.000000e+00 0.000000e+00 
0.000000e+00 0.000000e+00 0.000000e+00 
0.000000e+00 0.000000e+00 0.000000e+00 
0.000000e+00 0.000000e+00 0.000000e+00 
0.000000e+00 0.000000e+00 0.000000e+00 
0.000000e+00 0.000000e+00 0.000000e+00 
0.000000e+00 0.000000e+00 0.000000e+00 
0.000000e+00 0.000000e+00 0.000000e+00 
0.000000e+00 0.000000e+00 0.000000e+00 
0.000000e+00 0.000000e+00 0.000000e+00 
0.000000e+00 0.000000e+00 0.000000e+00 
0.000000e+00 0.000000e+00 0.000000e+00 
0.000000e+00 0.000000e+00 0.000000e+00 
0.000000e+00 0.000000e+00 0.000000e+00 
0.000000e+00 0.000000e+00 0.000000e+00 
0.000000e+00 0.000000e+00 0.000000e+00 
0.000000e+00 0.000000e+00 0.000000e+00 
0.000000e+00 0.000000e+00 0.000000e+00 
0.000000e+00 0.000000e+00 0.000000e+00 
0.000000e+00 0.000000e+00 0.000000e+00 
0.000000e+00 0.000000e+00 0.000000e+00 
0.000000e+00 0.000000e+00 0.000000e+00 
0.000000e+00 0.000000e+00 0.000000e+00 
0.000000e+00 0.000000e+00 0.000000e+00 
0.000000e+00 0.000000e+00 0.000000e+00 
0.000000e+00 0.000000e+00 0.000000e+00 
0.000000e+00 0.000000e+00 0.000000e+00 
0.000000e+00 0.000000e+00 0.000000e+00 
0.000000e+00 0.000000e+00 0.000000e+00 
0.000000e+00 0.000000e+00 0.000000e+00 
0.000000e+00 0.000000e+00 0.000000e+00 
0.000000e+00 0.000000e+00 0.000000e+00 
0.000000e+00 0.000000e+00 0.000000e+00 
0.000000e+00 0.000000e+00 0.000000e+00 
0.000000e+00 0.000000e+00 0.000000e+00 
0.000000e+00 0.000000e+00 0.000000e+00 
0.000000e+00 0.000000e+00 0.000000e+00 
0.000000e+00 0.000000e+00 0.000000e+00 
0.000000e+00 0.000000e+00 0.000000e+00 
0.000000e+00 0.000000e+00 0.000000e+00 
0.000000e+00 0.000000e+00 0.000000e+00 
0.000000e+00 0.000000e+00 0.000000e+00 
0.000000e+00 0.000000e+00 0.000000e+00 
0.000000e+00 0.000000e+00 0.000000e+00 
0.000000e+00 0.000000e+00 0.000000e+00 
0.000000e+00 0.000000e+00 0.000000e+00 
0.000000e+00 0.000000e+00 0.000000e+00 
0.000000e+00 0.000000e+00 0.000000e+00 
0.000000e+00 0.000000e+00 0.000000e+00 
0.000000e+00 0.000000e+00 0.000000e+00 
0.000000e+00 0.000000e+00 0.000000e+00 
0.000000e+00 0.000000e+00 0.000000e+00 
0.000000e+00 0.000000e+00 0.000000e+00 
0.000000e+00 0.000000e+00 0.000000e+00 
0.000000e+00 0.000000e+00 0.000000e+00 
0.000000e+00 0.000000e+00 0.000000e+00 
0.000000e+00 0.000000e+00 0.000000e+00 
0.000000e+00 0.000000e+00 0.000000e+00 
0.000000e+00 0.000000e+00 0.000000e+00 
0.000000e+00 0.000000e+00 0.000000e+00 
0.000000e+00 0.000000e+00 0.000000e+00 
0.000000e+00 0.000000e+00 0.000000e+00 
0.000000e+00 0.000000e+00 0.000000e+00 
0.000000e+00 0.000000e+00 0.000000e+00 
0.000000e+00 0.000000e+00 0.000000e+00 
0.000000e+00 0.000000e+00 0.000000e+00 
0.000000e+00 0.000000e+00 0.000000e+00 
0.000000e+00 0.000000e+00 0.000000e+00 
0.000000e+00 0.000000e+00 0.000000e+00 
0.000000e+00 0.000000e+00 0.000000e+00 
0.000000e+00 0.000000e+00 0.000000e+00 
0.000000e+00 0.000000e+00 0.000000e+00 