# vtk DataFile Version 3.1
*description-name of input file* step:1001 
ASCII
DATASET UNSTRUCTURED_GRID
POINTS 1605 FLOAT
-7.132836e-09 -5.978198e-09 -6.261782e-11
-7.544733e-09 -4.616269e-09 -5.021291e-10
-6.291155e-09 -4.969773e-09 -7.621780e-10
-7.811582e-09 -4.107168e-09 1.956232e-09
-5.426112e-09 -5.932529e-09 -5.191914e-13
1.213109e-08 7.201496e-09 -1.071076e-08
1.365307e-08 7.364446e-09 -1.083119e-08
1.286468e-08 6.067964e-09 -1.199742e-08
-5.940884e-09 -6.126303e-09 9.929977e-10
-6.328914e-09 -2.985301e-09 9.580639e-10
-4.402937e-09 -4.615945e-09 -1.032532e-09
-6.285423e-09 -2.912820e-09 -4.609725e-10
-5.530566e-09 -5.480378e-09 2.471098e-09
-5.842175e-09 -3.771999e-09 1.959230e-09
-5.173694e-09 -3.688213e-09 -1.545571e-09
-7.359680e-09 -4.281662e-09 3.256585e-09
-3.413946e-09 -5.373342e-09 2.308394e-10
-6.521857e-09 -1.223800e-09 2.129924e-10
-5.489726e-09 -1.416217e-09 -1.016134e-09
-3.953159e-09 -4.117410e-09 -3.446634e-09
-5.095265e-09 -2.785774e-09 -2.927655e-09
-4.132136e-09 -2.210044e-09 -3.902480e-09
-6.351372e-09 -2.605130e-09 2.470896e-09
-5.749021e-09 2.387892e-10 -2.522671e-09
-6.341087e-09 3.644398e-10 -9.582038e-10
-3.586805e-09 -4.652478e-09 1.908493e-09
-7.237410e-09 -1.621443e-09 1.256065e-09
-5.786794e-09 -3.667751e-09 4.197960e-09
-4.145432e-09 -1.995136e-09 -3.449331e-10
-7.735504e-09 -2.271314e-09 3.336080e-09
-2.437494e-09 -4.628110e-09 -2.103592e-09
-2.754182e-09 -3.103606e-09 -3.708268e-09
-2.216119e-09 -4.119799e-09 -3.245834e-09
-3.507977e-09 -3.397492e-09 -6.518555e-10
-5.931228e-09 -2.612336e-09 4.265146e-09
-4.243421e-09 -1.012084e-09 -2.359829e-09
-6.316470e-09 -5.879387e-10 2.171641e-09
-4.692062e-09 -3.667895e-10 5.094052e-10
-3.070031e-09 -1.933732e-09 -1.930524e-09
-4.043000e-09 -4.077238e-09 3.742367e-09
-4.857772e-09 2.505763e-10 -6.608641e-10
-3.960722e-09 1.046921e-09 -5.011127e-09
-3.985512e-09 4.267543e-10 -3.010627e-09
-4.814564e-09 1.145034e-09 -3.628174e-09
-4.137692e-09 -2.591932e-09 2.129481e-09
-1.648126e-09 -3.150927e-09 -6.576199e-10
-4.240149e-09 2.573073e-09 -4.012137e-09
-2.980232e-09 -1.638456e-09 -3.205582e-09
-3.236587e-09 3.652952e-11 -2.911968e-09
-1.654584e-09 -1.747589e-09 -3.529334e-09
-3.427899e-09 3.382196e-10 -9.631876e-10
-3.027800e-09 -2.015035e-09 2.047325e-10
-3.370246e-09 2.419447e-10 -4.763205e-09
-1.807425e-09 -2.285738e-09 -1.783043e-09
-3.912024e-09 -3.524243e-10 8.290008e-09
-2.256625e-09 -1.630218e-09 7.626518e-09
-1.767615e-09 1.829015e-10 7.399454e-09
-1.502210e-09 4.131296e-10 -4.157872e-09
-5.789982e-09 -3.290792e-09 5.926846e-09
-4.026463e-09 2.294946e-09 -2.397384e-09
-3.669011e-09 -2.904898e-09 3.684370e-09
-4.447014e-09 -3.688305e-10 2.574634e-09
-3.834462e-09 -1.459218e-09 1.230144e-09
-5.260182e-09 2.308399e-09 -2.200600e-10
-4.666895e-09 7.222729e-10 1.203583e-09
-6.407651e-09 1.975229e-09 1.722284e-09
-4.595934e-09 -4.515905e-09 5.666176e-09
-4.728511e-09 -3.690516e-09 6.983991e-09
-6.092024e-09 -1.711480e-09 6.578853e-09
-2.040143e-09 1.768152e-09 2.036390e-09
5.255673e-11 2.405593e-09 3.608550e-09
-1.070156e-09 1.748258e-09 7.220638e-10
-4.557626e-09 7.304166e-10 -1.112058e-09
-3.131856e-09 -4.395801e-09 5.386286e-09
1.032120e-09 2.543953e-10 3.659088e-09
8.638518e-10 1.185894e-09 4.317782e-09
2.654193e-12 7.557649e-10 5.550451e-09
-5.324043e-09 3.407524e-09 1.105976e-09
-4.728937e-09 -1.637739e-09 5.445269e-09
-1.077958e-09 -1.773396e-11 -1.362016e-09
-4.469455e-09 -2.334959e-09 4.667232e-09
-3.446397e-09 1.906450e-10 5.561010e-10
-2.211700e-09 -4.928542e-10 -1.477882e-10
-5.781045e-09 2.604475e-09 3.847571e-09
-2.384942e-09 -5.160454e-09 3.703787e-09
-2.839660e-09 2.666007e-09 -3.349469e-09
-2.233770e-09 -3.804498e-09 2.628150e-09
-5.673886e-09 -5.320456e-10 5.450018e-09
-2.404007e-09 1.549902e-09 -2.204877e-09
-4.255606e-09 1.414164e-12 4.848737e-09
-2.852632e-09 -2.845653e-09 4.870745e-09
-5.802726e-09 -6.823138e-10 4.274768e-09
-3.279630e-09 -9.953766e-10 4.220473e-09
-5.650819e-10 -1.471279e-09 1.103674e-10
-4.361503e-09 3.436614e-09 2.464902e-09
-3.081393e-09 2.905464e-09 -8.721083e-10
-4.335628e-10 -1.573997e-09 -3.372368e-09
2.878180e-10 -2.821298e-09 -2.827563e-09
-4.020950e-09 -2.435929e-09 7.718173e-09
-5.586369e-09 -1.393420e-09 7.582664e-09
-5.479098e-09 2.384799e-10 7.659967e-09
9.082359e-10 2.128182e-09 3.156329e-09
-3.383339e-09 1.235338e-09 9.335795e-10
-3.441313e-09 2.821007e-09 5.498132e-10
-6.340072e-09 1.364085e-09 4.888431e-09
-4.567494e-09 7.172066e-11 3.767409e-09
-3.649521e-09 -2.567366e-09 6.258537e-09
-3.067965e-11 -6.409526e-11 -3.333246e-09
-1.426768e-09 -2.731461e-09 3.567848e-09
-4.950399e-09 1.253556e-09 6.727031e-09
-3.512236e-09 7.024239e-10 3.376532e-09
-4.208492e-09 2.174144e-09 5.449539e-09
-4.270848e-09 1.766161e-09 3.159188e-09
-3.537949e-10 -3.861688e-09 2.672129e-09
8.357776e-10 -3.644916e-09 4.203885e-09
-4.027582e-09 2.284534e-09 1.863734e-09
3.972711e-10 -1.969723e-09 -6.151490e-10
-3.942167e-09 2.787036e-09 4.187935e-09
1.326321e-09 -1.069324e-09 -2.978710e-09
-7.554589e-10 -3.973066e-09 6.125144e-09
-7.885857e-10 -6.473698e-10 1.226933e-09
-2.343628e-09 -3.236855e-09 6.544983e-09
-1.866960e-09 -2.125845e-09 5.423823e-09
-1.556055e-09 -2.556252e-10 2.898725e-09
-1.399786e-09 -1.735094e-09 4.291000e-09
-2.545844e-09 1.399340e-09 3.756227e-09
1.597712e-09 -8.051832e-10 -1.316924e-09
5.876406e-10 8.287446e-10 -1.287346e-09
1.500666e-09 -6.634866e-10 5.985115e-09
-3.206117e-09 1.196665e-09 6.149843e-09
8.323617e-10 6.496045e-10 -3.085370e-09
1.007854e-09 -4.432747e-09 2.898179e-09
-7.899424e-10 -5.735947e-10 4.012553e-09
8.589537e-10 -1.106048e-09 -9.274251e-11
6.136051e-10 -3.729196e-09 5.490290e-09
-3.092159e-09 8.537973e-10 7.477884e-09
-2.528270e-09 2.153189e-09 5.788575e-09
-1.171590e-09 -1.803585e-09 6.642706e-09
2.256414e-09 -4.625911e-09 3.589190e-09
1.937314e-09 -3.726649e-09 2.368986e-09
-1.929658e-10 -1.427347e-09 2.759384e-09
-1.663881e-10 -2.850135e-09 6.919321e-09
1.288481e-09 -1.559049e-09 1.695732e-09
1.907321e-09 -2.352961e-10 -2.155469e-09
-9.133780e-10 1.726437e-09 3.481733e-09
-7.723617e-10 -1.490313e-09 7.941108e-09
1.652013e-09 4.769537e-10 -6.379885e-12
2.299687e-09 -3.290468e-09 4.646947e-09
2.947428e-09 -4.032974e-09 3.516409e-09
1.949291e-09 1.388328e-09 -1.241407e-09
5.105328e-10 -2.373070e-09 6.138378e-09
-1.676939e-09 6.775248e-10 5.212776e-09
2.897858e-09 -1.787373e-10 7.944283e-10
2.625996e-09 2.017006e-10 -3.937250e-09
1.706435e-09 -2.592681e-09 4.856000e-09
3.538011e-09 -2.793502e-09 2.439443e-09
3.299324e-09 6.888801e-10 -2.186086e-09
2.540421e-09 2.268278e-09 -2.550592e-09
2.628262e-09 2.059822e-09 -4.035082e-09
3.571665e-09 9.328233e-10 -3.916043e-09
4.036366e-09 1.488253e-09 -5.195612e-09
1.340312e-09 -1.398860e-09 4.226984e-09
6.297013e-10 -9.651627e-10 7.150496e-09
2.569216e-09 -6.330853e-10 1.982321e-09
1.164761e-09 1.555776e-09 5.999032e-10
2.218099e-09 1.688566e-09 -3.120236e-10
4.507739e-09 1.735971e-09 -3.494877e-09
3.788352e-10 1.233468e-09 7.470821e-09
1.407210e-09 1.203103e-09 1.968536e-09
2.744928e-09 -2.232380e-09 3.456718e-09
2.161214e-09 -2.262277e-10 3.375523e-09
3.628066e-09 -2.970378e-11 1.932841e-09
4.258545e-09 2.838621e-09 -3.404393e-09
3.142003e-09 7.946120e-10 -8.569061e-10
3.228398e-09 1.707978e-09 -1.705165e-09
4.856929e-09 2.551877e-09 -5.045209e-09
3.359772e-09 9.641204e-10 7.790238e-10
5.178537e-09 2.047374e-09 -6.021909e-09
5.363245e-09 1.530012e-09 -4.695306e-09
3.742812e-09 -5.788422e-11 -1.905316e-10
3.218648e-09 1.026751e-09 2.555231e-09
6.378880e-09 1.496914e-09 -5.992309e-09
5.752231e-09 2.690096e-09 -3.960474e-09
7.053496e-09 3.060783e-09 -6.692515e-09
6.592323e-09 2.097996e-09 -5.023914e-09
7.243048e-09 2.187007e-09 -6.669044e-09
6.340503e-09 3.578288e-09 -4.581079e-09
7.574218e-09 3.361598e-09 -5.646685e-09
8.634373e-09 2.703133e-09 -5.916927e-09
8.425441e-09 2.921286e-09 -7.062117e-09
8.498213e-09 4.005841e-09 -6.921480e-09
9.572165e-09 3.053623e-09 -6.870406e-09
1.034085e-08 4.334295e-09 -7.795890e-09
1.014293e-08 4.827383e-09 -7.736685e-09
9.578076e-09 3.941688e-09 -6.097725e-09
1.107581e-08 4.064232e-09 -7.013655e-09
1.008410e-08 4.765496e-09 -6.487220e-09
1.134291e-08 5.001978e-09 -8.632623e-09
1.127294e-08 6.358548e-09 -7.642392e-09
1.113235e-08 5.304293e-09 -6.733509e-09
1.264571e-08 4.838402e-09 -8.394179e-09
1.133337e-08 6.699101e-09 -9.971820e-09
1.150866e-08 5.906486e-09 -1.044170e-08
1.122587e-08 6.102802e-09 -8.904928e-09
1.216684e-08 5.043677e-09 -9.113096e-09
1.169302e-08 5.849465e-09 -7.147955e-09
1.287374e-08 5.648329e-09 -7.886136e-09
1.349730e-08 5.097164e-09 -9.315688e-09
1.384071e-08 5.561291e-09 -1.064553e-08
1.203635e-08 6.938988e-09 -8.705167e-09
1.432716e-08 6.705119e-09 -1.009687e-08
1.363065e-08 6.219600e-09 -8.743620e-09
1.348127e-08 7.676517e-09 -9.140598e-09
2.083695e-09 1.538447e-09 -7.767152e-10
-4.374731e-09 -3.063222e-09 7.351082e-09
7.148272e-09 2.623895e-09 -6.680779e-09
7.313857e-09 3.211190e-09 -6.169600e-09
1.249789e-08 6.634730e-09 -1.135409e-08
2.262266e-09 1.259948e-09 6.894635e-10
-4.142835e-09 2.943979e-10 -8.120259e-10
8.104295e-09 3.032365e-09 -5.781806e-09
5.042682e-10 1.341527e-10 7.310659e-09
-2.451587e-10 4.055053e-10 -1.324681e-09
-3.153309e-09 -9.486013e-10 -2.421246e-09
7.739468e-09 2.991034e-09 -6.877316e-09
-4.420514e-09 1.719990e-09 -3.012779e-09
-5.537273e-09 1.348751e-09 1.462934e-09
-2.476310e-11 1.456166e-09 3.899757e-09
1.420489e-09 -1.031173e-09 5.106050e-09
1.024189e-08 4.580839e-09 -7.766288e-09
-4.563427e-09 -3.902811e-09 -2.496102e-09
-3.734447e-09 2.552771e-09 1.206773e-09
-3.260821e-09 -2.875276e-09 4.277557e-09
-5.865847e-09 2.691376e-09 1.414130e-09
1.110408e-08 4.684263e-09 -6.873582e-09
1.907447e-10 9.946165e-10 6.510636e-09
2.784805e-10 3.823247e-10 -2.310296e-09
4.582043e-10 1.795743e-09 3.963166e-09
-4.599196e-09 -1.986349e-09 5.056250e-09
-1.646864e-09 -2.428653e-09 4.495835e-09
-3.901408e-09 3.128811e-09 1.507358e-09
-2.204383e-09 -2.425597e-09 -3.618801e-09
1.325888e-08 6.716205e-09 -1.141430e-08
[...]
POINT_DATA 1605
VECTORS vector_force float
-6.150358e+02 -6.680871e+02 1.025079e+03 
2.029632e+02 3.198944e+02 -4.073111e+01 
3.365223e+02 -1.317409e+02 2.820843e+02 
2.456016e+02 -2.813825e+02 6.815275e+02 
-5.814487e+02 6.306486e+02 7.635963e+02 
-5.245123e+00 -3.506085e+01 4.394029e+02 
-2.236971e+02 4.803721e+02 6.107417e+02 
-6.462653e+02 -3.106664e+02 2.219067e+02 
-1.291237e+02 -3.498495e+02 7.829431e+00 
-3.325656e+02 -4.860947e+02 6.631378e+02 
-4.351448e+02 2.039362e+01 2.250677e+02 
-9.322623e+02 3.804558e+02 7.461475e+02 
2.679367e+02 -8.790073e+02 -9.115798e+02 
2.226514e+02 -2.477879e+02 6.417550e+01 
3.495113e+02 1.404865e+03 -5.813754e+02 
2.768094e+02 -8.590530e+02 -2.654962e+02 
-1.388264e+03 3.878455e+02 -6.844346e+02 
-4.292636e+01 1.029922e+03 -7.898334e+00 
5.784525e+02 4.143695e+02 1.913964e+02 
-9.646629e+02 2.393045e+02 -4.944696e+02 
1.144174e+03 1.795394e+03 -4.713721e+02 
9.310290e+02 4.961287e+02 -1.647328e+02 
4.325584e+02 2.891944e+02 -4.652007e+02 
-1.341663e+01 -1.102822e+03 -1.580040e+02 
7.433808e+02 3.128585e+02 1.530384e+02 
6.406312e+01 -5.110036e+00 -5.724102e+02 
4.332642e+02 1.143443e+02 -8.956280e+02 
9.111004e+02 7.458887e+01 -1.275232e+02 
1.269286e+02 -3.692837e+02 -5.993869e+02 
-3.401783e+02 -2.976086e+02 -8.108130e+02 
-2.432877e+02 6.030163e+02 -1.319484e+02 
-1.271814e+02 6.205435e+01 7.829201e+02 
-2.701019e+02 -2.194188e+02 -4.986063e+02 
-2.845561e+02 -3.316852e+01 6.121890e+02 
8.176988e+01 -4.600955e+02 -6.479598e+02 
-5.582170e+02 -5.757086e+02 -3.644614e+02 
-3.693441e+02 -1.973664e+02 -5.977025e+02 
3.438815e+02 -4.037555e+02 2.697824e+02 
-7.334338e+01 5.007721e+02 -7.259864e+01 
7.490437e+02 6.570263e+02 -6.335619e+02 
1.089035e+03 1.287090e+02 -2.594363e+02 
-7.954624e+02 -2.980818e+02 -1.472992e+03 
-1.188978e+03 3.838583e+02 -1.422537e+03 
-1.760371e+02 -5.901050e+02 -8.781535e+01 
8.379623e+01 1.305097e+02 -1.377998e+02 
6.089412e+01 8.445963e+02 -7.012026e+01 
-7.415387e+02 -6.010424e+01 -1.259501e+02 
2.891408e+02 1.944765e+02 4.334328e+02 
-2.489035e+02 -4.537333e+01 3.404647e+02 
1.168852e+02 7.831548e+02 -2.093384e+01 
1.212843e+02 -2.002481e+02 -3.713690e+02 
-2.279471e+02 5.819254e+01 -1.200732e+02 
-3.819283e+02 -1.621445e+02 -3.515070e+02 
-1.713085e+02 -4.468973e+00 -1.719757e+02 
2.655125e+02 -7.878492e+02 -1.038728e+02 
3.341617e+02 -3.358746e+02 -2.143331e+02 
3.188901e+02 -2.656609e+02 2.132752e+02 
9.702454e+01 1.277874e+02 -5.720695e+02 
2.730733e+02 -5.989322e+02 -6.723278e+02 
-4.050941e+01 -1.255529e+02 -3.202074e+02 
1.391290e+02 -1.906585e+02 2.937413e+02 
-3.906418e+02 -3.956261e+02 5.765204e+02 
4.413878e+01 6.584016e+01 -5.699032e+02 
-5.642172e+02 -1.270914e+03 1.526131e+02 
4.442871e+02 -2.894992e+02 5.551415e+02 
7.908557e+01 -7.645497e+02 7.564995e+02 
5.728138e+02 -2.755640e+02 -1.382763e+02 
6.552649e+02 -7.567743e+02 -9.538263e+02 
2.571188e+01 -9.632507e+02 -2.721285e+02 
5.334649e+02 7.438675e+02 6.964978e+02 
8.924766e+01 6.083585e+01 6.473308e+00 
1.865236e+02 1.034369e+02 -9.521674e+01 
-1.021274e+03 -9.038172e+02 -6.193355e+02 
3.658552e+02 -3.509916e+02 3.462298e+02 
-3.434091e+01 -4.555870e+01 6.095252e+01 
-3.935527e+01 1.856492e+02 -1.355955e+02 
-3.128992e+02 3.864229e+01 2.388056e+02 
-7.624976e+02 3.355739e+02 -2.733700e+02 
3.183817e+02 3.119217e+01 -2.218845e+02 
-7.232624e+01 -9.698329e+01 6.637210e+02 
5.882088e+02 -4.970763e+02 -7.651356e+02 
-3.234019e+02 -6.623978e+02 -4.084183e+01 
1.929128e+02 -2.669891e+02 6.385060e+02 
2.682189e+02 -1.030627e+03 2.511813e+02 
9.250458e+02 1.517997e+02 -3.874241e+02 
-6.666985e+02 1.040584e+03 -9.664496e+02 
3.387737e+02 -7.038163e+02 -7.592472e+02 
6.583959e+02 -7.217652e+02 7.171395e+02 
-5.438828e+02 -2.736170e+02 -1.295098e+03 
-1.865969e+02 -1.219386e-01 -7.827041e+01 
-2.853923e+01 -2.477638e+02 -2.202509e+02 
-3.028214e+02 -7.348833e+02 3.452306e+02 
2.318660e+02 -8.204175e+01 2.923778e+02 
6.704520e+02 1.467578e+02 -1.564317e+02 
-5.267356e+02 1.597421e+01 -4.638514e+02 
-1.330855e+03 -1.078329e+02 -4.682233e+02 
2.946723e+02 7.577795e+02 -4.155987e+02 
-5.380403e+02 4.801380e+01 -8.770376e+02 
6.404710e+02 -4.062531e+02 -4.087451e+02 
1.594189e+02 -6.416940e+02 5.595030e+02 
-5.788931e+02 5.062044e+01 7.189306e+02 
6.534260e+00 2.383956e+02 1.790788e+02 
2.859862e+02 1.885674e+02 3.292738e+02 
-7.654740e+02 -1.097882e+03 -3.072309e+02 
-1.719512e+02 5.721751e+02 1.621117e+02 
2.532544e+02 -7.857170e+02 5.894298e+02 
-2.014192e+02 -3.771947e+02 1.387121e+01 
4.334090e+01 1.312636e+03 3.939252e+02 
3.606572e+02 -1.190016e+02 -5.519520e+00 
-2.979293e+02 -3.754744e+02 4.316102e+02 
-8.168802e+02 3.046170e+02 -2.659795e+02 
3.553663e+02 2.159293e+01 6.843137e+02 
-6.604043e+02 -2.539979e+01 5.746305e+02 
5.802187e+02 5.438221e+02 -8.955782e+02 
-3.308323e+02 6.682670e+02 -3.925103e+02 
-6.147443e+02 5.592487e+01 7.234004e+02 
2.864361e+02 1.034594e+02 -5.721153e+02 
-9.103698e+02 -3.114400e+02 1.920743e+02 
-7.976869e+02 3.703273e+01 -9.363135e+01 
6.016789e+02 -5.381553e+02 -2.413190e+02 
4.312037e+02 -2.600803e+02 7.657793e+01 
3.545817e+02 -3.352212e+02 4.242516e+01 
4.133120e+01 4.322497e+02 -4.366349e+02 
-5.485026e+02 5.910587e+02 -4.047711e+02 
-4.970983e+01 1.329301e+02 -4.532609e+02 
-2.038664e+02 6.490522e+02 -1.471908e+02 
-4.549011e+02 3.398129e+01 -3.603719e+01 
4.420936e+02 2.715657e+01 8.033885e+02 
-9.321872e+02 6.281904e+02 -5.556750e+02 
-1.946566e+01 -2.358584e+01 5.435625e+01 
2.177026e+02 2.121862e+02 2.456965e+02 
3.939848e+02 6.483242e+02 7.667890e+02 
-3.578895e+02 -4.341336e+02 -3.742156e+02 
3.468386e+02 1.100327e+02 -5.474179e+02 
4.058968e+02 -4.593296e+02 -5.101693e+02 
2.038802e+02 -4.157330e+02 7.670814e+02 
3.891159e+02 8.023287e+02 -2.454102e+02 
-8.625799e+01 -2.455708e+02 6.816708e+02 
7.309342e+02 -1.916072e+02 5.039891e+02 
1.028448e+03 -1.721947e+01 1.529529e+03 
-2.518085e+02 1.024854e+02 5.836297e+01 
-3.213466e+02 -6.010511e+02 6.373247e+02 
4.711441e+02 4.065768e+01 2.490741e+02 
-8.858225e+02 2.669376e+02 1.287672e+02 
-1.003701e+02 -5.470597e+00 -4.764600e+01 
-6.993475e+02 -3.662401e+01 3.018093e+02 
5.230296e+02 -1.551798e+02 -2.296347e+02 
-4.330956e+02 -3.793220e+02 -1.653337e+02 
7.041522e+02 -7.618431e+01 -2.545530e+00 
3.162282e+00 1.215130e+02 9.137964e+01 
-3.705827e+02 -2.571484e+02 8.309112e+02 
-5.912031e+02 -2.687510e+02 2.555507e+02 
-4.056754e+02 5.733181e+02 1.581919e+01 
-1.490077e+03 -4.233508e+02 1.993156e+02 
-8.274007e+02 2.552168e+02 -3.787447e+02 
1.325121e+03 -8.894662e+02 1.107185e+02 
1.020172e+02 1.364556e+03 5.870770e+02 
-1.476202e+02 -2.070399e+02 -9.708848e+01 
-1.186620e+02 -4.540769e+02 2.547324e+02 
2.936933e+02 1.523048e+02 1.854804e+02 
-2.025565e+01 -3.514644e+02 7.107758e+02 
1.525279e+02 4.557622e+02 -2.684677e+02 
3.662918e+02 -1.662594e+02 -3.980390e+02 
6.736362e+02 3.764337e+02 -4.180037e+02 
1.574412e+02 1.824599e+02 -2.616109e+02 
8.616019e+02 6.971621e+01 5.314611e+02 
-2.357605e+02 4.660936e+02 5.375168e+02 
1.269290e+03 2.263970e+02 -3.867488e+02 
2.694638e+01 2.018264e+02 1.592366e+02 
1.208286e+03 -4.356398e+02 -2.442364e+02 
-4.776439e+02 1.222061e+03 -3.281847e+02 
-2.257754e+02 2.574985e+02 2.136079e+02 
-7.688570e+02 6.028526e+02 4.607725e+02 
4.261492e+02 3.994479e+02 2.584133e+02 
-4.595621e+02 6.517606e+02 5.068432e+02 
-4.439255e+02 -8.178776e+01 3.226487e+02 
-1.361135e+02 -2.827891e+02 -3.408100e+02 
2.195042e+02 5.728010e+02 8.554609e+02 
-2.121419e+02 5.740596e+01 7.765855e+02 
-5.841917e+02 -1.260267e+02 -5.111268e+02 
-7.718127e+01 4.806068e+02 -5.244429e+02 
-5.052988e+02 -3.070475e+02 5.811235e+02 
-1.644489e+02 7.241522e+02 9.401939e+02 
3.957826e+02 -1.083473e+02 1.254743e+02 
-9.605987e+02 -1.585950e+02 6.708723e+02 
1.947318e+02 -1.466599e+02 1.745164e+02 
1.396596e+03 -2.791719e+02 7.150184e+02 
1.038799e+03 -3.487129e+02 1.162311e+02 
1.290439e+02 -7.756771e+02 -2.910618e+02 
-5.086582e+02 1.484280e+02 3.650874e+02 
-1.154390e+02 1.819835e+02 -9.895319e+01 
-6.429367e+00 -9.133613e+02 -5.279420e+02 
4.990580e+02 -2.164755e+02 -1.372740e+01 
4.874804e+02 6.444368e+01 -6.984506e+02 
3.778516e+02 -8.348394e+01 1.254604e+02 
7.319348e+02 -7.849926e+01 -6.396052e+02 
-1.354476e+01 -4.450704e+02 4.787286e+02 
1.164349e+02 -8.941495e+01 -4.876134e+02 
-7.164694e+02 -3.934162e+02 9.094625e+02 
3.750870e+01 -6.321894e+02 -1.142712e+02 
-8.115046e+02 3.407009e+02 -9.360409e+02 
1.094601e+03 6.628017e+02 5.899493e+02 
-1.886141e+02 1.042409e+03 7.707118e+02 
-1.510625e+02 1.582585e+03 -8.574309e+02 
-7.927689e+01 3.833266e+02 1.816512e+02 
1.597724e+01 1.499618e+01 1.592235e+02 
-1.895639e+02 4.373196e+02 -1.154594e+02 
-1.167873e+03 5.924742e+02 9.307448e+02 
-9.116462e+02 -8.517525e+02 1.289102e+03 
-5.966935e+02 4.875426e+02 9.438122e+02 
3.504354e+02 1.871900e+02 4.046099e+02 
-9.773598e+02 6.311707e+02 5.779255e+02 
-1.141082e+03 -6.462279e+02 9.485671e+02 
0.000000e+00 0.000000e+00 0.000000e+00 
0.000000e+00 0.000000e+00 0.000000e+00 
0.000000e+00 0.000000e+00 0.000000e+00 
0.000000e+00 0.000000e+00 0.000000e+00 
0.000000e+00 0.000000e+00 0.000000e+00 
0.000000e+00 0.000000e+00 0.000000e+00 
0.000000e+00 0.000000e+00 0.000000e+00 
0.000000e+00 0.000000e+00 0.000000e+00 
0.000000e+00 0.000000e+00 0.000000e+00 
0.000000e+00 0.000000e+00 0.000000e+00 
0.000000e+00 0.000000e+00 0.000000e+00 
0.000000e+00 0.000000e+00 0.000000e+00 
0.000000e+00 0.000000e+00 0.000000e+00 
0.000000e+00 0.000000e+00 0.000000e+00 
0.000000e+00 0.000000e+00 0.000000e+00 
0.000000e+00 0.000000e+00 0.000000e+00 
0.000000e+00 0.000000e+00 0.000000e+00 
0.000000e+00 0.000000e+00 0.000000e+00 
0.000000e+00 0.000000e+00 0.000000e+00 
0.000000e+00 0.000000e+00 0.000000e+00 
0.000000e+00 0.000000e+00 0.000000e+00 
0.000000e+00 0.000000e+00 0.000000e+00 
0.000000e+00 0.000000e+00 0.000000e+00 
0.000000e+00 0.000000e+00 0.000000e+00 
0.000000e+00 0.000000e+00 0.000000e+00 
0.000000e+00 0.000000e+00 0.000000e+00 
0.000000e+00 0.000000e+00 0.000000e+00 
0.000000e+00 0.000000e+00 0.000000e+00 
0.000000e+00 0.000000e+00 0.000000e+00 
0.000000e+00 0.000000e+00 0.000000e+00 
0.000000e+00 0.000000e+00 0.000000e+00 
0.000000e+00 0.000000e+00 0.000000e+00 
0.000000e+00 0.000000e+00 0.000000e+00 
0.000000e+00 0.000000e+00 0.000000e+00 
0.000000e+00 0.000000e+00 0.000000e+00 
0.000000e+00 0.000000e+00 0.000000e+00 
0.000000e+00 0.000000e+00 0.000000e+00 
0.000000e+00 0.000000e+00 0.000000e+00 
0.000000e+00 0.000000e+00 0.000000e+00 
0.000000e+00 0.000000e+00 0.000000e+00 
0.000000e+00 0.000000e+00 0.000000e+00 
0.000000e+00 0.000000e+00 0.000000e+00 
0.000000e+00 0.000000e+00 0.000000e+00 
0.000000e+00 0.000000e+00 0.000000e+00 
0.000000e+00 0.000000e+00 0.000000e+00 
0.000000e+00 0.000000e+00 0.000000e+00 
0.000000e+00 0.000000e+00 0.000000e+00 
0.000000e+00 0.000000e+00 0.000000e+00 
0.000000e+00 0.000000e+00 0.000000e+00 
0.000000e+00 0.000000e+00 0.000000e+00 
0.000000e+00 0.000000e+00 0.000000e+00 
0.000000e+00 0.000000e+00 0.000000e+00 
0.000000e+00 0.000000e+00 0.000000e+00 
0.000000e+00 0.000000e+00 0.000000e+00 
0.000000e+00 0.000000e+00 0.000000e+00 
0.000000e+00 0.000000e+00 0.000000e+00 
0.000000e+00 0.000000e+00 0.000000e+00 
0.000000e+00 0.000000e+00 0.000000e+00 
0.000000e+00 0.000000e+00 0.000000e+00 
0.000000e+00 0.000000e+00 0.000000e+00 
0.000000e+00 0.000000e+00 0.000000e+00 
0.000000e+00 0.000000e+00 0.000000e+00 
0.000000e+00 0.000000e+00 0.000000e+00 
0.000000e+00 0.000000e+00 0.000000e+00 
0.000000e+00 0.000000e+00 0.000000e+00 
0.000000e+00 0.000000e+00 0.000000e+00 
0.000000e+00 0.000000e+00 0.000000e+00 
0.000000e+00 0.000000e+00 0.000000e+00 
0.000000e+00 0.000000e+00 0.000000e+00 
0.000000e+00 0.000000e+00 0.000000e+00 
0.000000e+00 0.000000e+00 0.000000e+00 
0.000000e+00 0.000000e+00 0.000000e+00 
0.000000e+00 0.000000e+00 0.000000e+00 
0.000000e+00 0.000000e+00 0.000000e+00 
0.000000e+00 0.000000e+00 0.000000e+00 
0.000000e+00 0.000000e+00 0.000000e+00 
0.000000e+00 0.000000e+00 0.000000e+00 
0.000000e+00 0.000000e+00 0.000000e+00 
0.000000e+00 0.000000e+00 0.000000e+00 
0.000000e+00 0.000000e+00 0.000000e+00 
0.000000e+00 0.000000e+00 0.000000e+00 
0.000000e+00 0.000000e+00 0.000000e+00 
0.000000e+00 0.000000e+00 0.000000e+00 
0.000000e+00 0.000000e+00 0.000000e+00 
0.000000e+00 0.000000e+00 0.000000e+00 
0.000000e+00 0.000000e+00 0.000000e+00 
0.000000e+00 0.000000e+00 0.000000e+00 
0.000000e+00 0.000000e+00 0.000000e+00 
0.000000e+00 0.000000e+00 0.000000e+00 
0.000000e+00 0.000000e+00 0.000000e+00 
0.000000e+00 0.000000e+00 0.000000e+00 
0.000000e+00 0.000000e+00 0.000000e+00 
0.000000e+00 0.000000e+00 0.000000e+00 
0.000000e+00 0.000000e+00 0.000000e+00 
0.000000e+00 0.000000e+00 0.000000e+00 
0.000000e+00 0.000000e+00 0.000000e+00 
0.000000e+00 0.000000e+00 0.000000e+00 
0.000000e+00 0.000000e+00 0.000000e+00 
0.000000e+00 0.000000e+00 0.000000e+00 
0.000000e+00 0.000000e+00 0.000000e+00 
0.000000e+00 0.000000e+00 0.000000e+00 
0.000000e+00 0.000000e+00 0.000000e+00 
0.000000e+00 0.000000e+00 0.000000e+00 
0.000000e+00 0.000000e+00 0.000000e+00 
0.000000e+00 0.000000e+00 0.000000e+00 
0.000000e+00 0.000000e+00 0.000000e+00 
0.000000e+00 0.000000e+00 0.000000e+00 
0.000000e+00 0.000000e+00 0.000000e+00 
0.000000e+00 0.000000e+00 0.000000e+00 
0.000000e+00 0.000000e+00 0.000000e+00 
0.000000e+00 0.000000e+00 0.000000e+00 
0.000000e+00 0.000000e+00 0.000000e+00 
0.000000e+00 0.000000e+00 0.000000e+00 
0.000000e+00 0.000000e+00 0.000000e+00 
0.000000e+00 0.000000e+00 0.000000e+00 
0.000000e+00 0.000000e+00 0.000000e+00 
0.000000e+00 0.000000e+00 0.000000e+00 
0.000000e+00 0.000000e+00 0.000000e+00 
0.000000e+00 0.000000e+00 0.000000e+00 
0.000000e+00 0.000000e+00 0.000000e+00 
0.000000e+00 0.000000e+00 0.000000e+00 
0.000000e+00 0.000000e+00 0.000000e+00 
0.000000e+00 0.000000e+00 0.000000e+00 
0.000000e+00 0.000000e+00 0.000000e+00 
0.000000e+00 0.000000e+00 0.000000e+00 
0.000000e+00 0.000000e+00 0.000000e+00 
0.000000e+00 0.000000e+00 0.000000e+00 
0.000000e+00 0.000000e+00 0.000000e+00 
0.000000e+00 0.000000e+00 0.000000e+00 
0.000000e+00 0.000000e+00 0.000000e+00 
0.000000e+00 0.000000e+00 0.000000e+00 
0.000000e+00 0.000000e+00 0.000000e+00 
0.000000e+00 0.000000e+00 0.000000e+00 
0.000000e+00 0.000000e+00 0.000000e+00 
0.000000e+00 0.000000e+00 0.000000e+00 
0.000000e+00 0.000000e+00 0.000000e+00 
0.000000e+00 0.000000e+00 0.000000e+00 
0.000000e+00 0.000000e+00 0.000000e+00 
0.000000e+00 0.000000e+00 0.000000e+00 
0.000000e+00 0.000000e+00 0.000000e+00 
0.000000e+00 0.000000e+00 0.000000e+00 
0.000000e+00 0.000000e+00 0.000000e+00 
0.000000e+00 0.000000e+00 0.000000e+00 
0.000000e+00 0.000000e+00 0.000000e+00 
0.000000e+00 0.000000e+00 0.000000e+00 
0.000000e+00 0.000000e+00 0.000000e+00 
0.000000e+00 0.000000e+00 0.000000e+00 
0.000000e+00 0.000000e+00 0.000000e+00 
0.000000e+00 0.000000e+00 0.000000e+00 
0.000000e+00 0.000000e+00 0.000000e+00 
0.000000e+00 0.000000e+00 0.000000e+00 
0.000000e+00 0.000000e+00 0.000000e+00 
0.000000e+00 0.000000e+00 0.000000e+00 
0.000000e+00 0.000000e+00 0.000000e+00 
0.000000e+00 0.000000e+00 0.000000e+00 
0.000000e+00 0.000000e+00 0.000000e+00 
0.000000e+00 0.000000e+00 0.000000e+00 
0.000000e+00 0.000000e+00 0.000000e+00 
0.000000e+00 0.000000e+00 0.000000e+00 
0.000000e+00 0.000000e+00 0.000000e+00 
0.000000e+00 0.000000e+00 0.000000e+00 
0.000000e+00 0.000000e+00 0.000000e+00 
0.000000e+00 0.000000e+00 0.000000e+00 
0.000000e+00 0.000000e+00 0.000000e+00 
0.000000e+00 0.000000e+00 0.000000e+00 
0.000000e+00 0.000000e+00 0.000000e+00 
0.000000e+00 0.000000e+00 0.000000e+00 
0.000000e+00 0.000000e+00 0.000000e+00 
0.000000e+00 0.000000e+00 0.000000e+00 
0.000000e+00 0.000000e+00 0.000000e+00 
0.000000e+00 0.000000e+00 0.000000e+00 
0.000000e+00 0.000000e+00 0.000000e+00 
0.000000e+00 0.000000e+00 0.000000e+00 
0.000000e+00 0.000000e+00 0.000000e+00 
0.000000e+00 0.000000e+00 0.000000e+00 
0.000000e+00 0.000000e+00 0.000000e+00 
0.000000e+00 0.000000e+00 0.000000e+00 
0.000000e+00 0.000000e+00 0.000000e+00 
0.000000e+00 0.000000e+00 0.000000e+00 
0.000000e+00 0.000000e+00 0.000000e+00 
0.000000e+00 0.000000e+00 0.000000e+00 
0.000000e+00 0.000000e+00 0.000000e+00 
0.000000e+00 0.000000e+00 0.000000e+00 
0.000000e+00 0.000000e+00 0.000000e+00 
0.000000e+00 0.000000e+00 0.000000e+00 
0.000000e+00 0.000000e+00 0.000000e+00 
0.000000e+00 0.000000e+00 0.000000e+00 
0.000000e+00 0.000000e+00 0.000000e+00 
0.000000e+00 0.000000e+00 0.000000e+00 
0.000000e+00 0.000000e+00 0.000000e+00 
0.000000e+00 0.000000e+00 0.000000e+00 
0.000000e+00 0.000000e+00 0.000000e+00 
0.000000e+00 0.000000e+00 0.000000e+00 
0.000000e+00 0.000000e+00 0.000000e+00 
0.000000e+00 0.000000e+00 0.000000e+00 
0.000000e+00 0.000000e+00 0.000000e+00 
0.000000e+00 0.000000e+00 0.000000e+00 
0.000000e+00 0.000000e+00 0.000000e+00 
0.000000e+00 0.000000e+00 0.000000e+00 
0.000000e+00 0.000000e+00 0.000000e+00 
0.000000e+00 0.000000e+00 0.000000e+00 
0.000000e+00 0.000000e+00 0.000000e+00 
0.000000e+00 0.000000e+00 0.000000e+00 
0.000000e+00 0.000000e+00 0.000000e+00 
0.000000e+00 0.000000e+00 0.000000e+00 
0.000000e+00 0.000000e+00 0.000000e+00 
0.000000e+00 0.000000e+00 0.000000e+00 
0.000000e+00 0.000000e+00 0.000000e+00 
0.000000e+00 0.000000e+00 0.000000e+00 
0.000000e+00 0.000000e+00 0.000000e+00 
0.000000e+00 0.000000e+00 0.000000e+00 
0.000000e+00 0.000000e+00 0.000000e+00 
0.000000e+00 0.000000e+00 0.000000e+00 
0.000000e+00 0.000000e+00 0.000000e+00 
0.000000e+00 0.000000e+00 0.000000e+00 
0.000000e+00 0.000000e+00 0.000000e+00 
0.000000e+00 0.000000e+00 0.000000e+00 
0.000000e+00 0.000000e+00 0.000000e+00 
0.000000e+00 0.000000e+00 0.000000e+00 
0.000000e+00 0.000000e+00 0.000000e+00 
0.000000e+00 0.000000e+00 0.000000e+00 
0.000000e+00 0.000000e+00 0.000000e+00 
0.000000e+00 0.000000e+00 0.000000e+00 
0.000000e+00 0.000000e+00 0.000000e+00 
0.000000e+00 0.000000e+00 0.000000e+00 
0.000000e+00 0.000000e+00 0.000000e+00 
0.000000e+00 0.000000e+00 0.000000e+00 
0.000000e+00 0.000000e+00 0.000000e+00 
0.000000e+00 0.000000e+00 0.000000e+00 
0.000000e+00 0.000000e+00 0.000000e+00 
0.000000e+00 0.000000e+00 0.000000e+00 
0.000000e+00 0.000000e+00 0.000000e+00 
0.000000e+00 0.000000e+00 0.000000e+00 
0.000000e+00 0.000000e+00 0.000000e+00 
0.000000e+00 0.000000e+00 0.000000e+00 
0.000000e+00 0.000000e+00 0.000000e+00 
0.000000e+00 0.000000e+00 0.000000e+00 
0.000000e+00 0.000000e+00 0.000000e+00 
0.000000e+00 0.000000e+00 0.000000e+00 
0.000000e+00 0.000000e+00 0.000000e+00 
0.000000e+00 0.000000e+00 0.000000e+00 
0.000000e+00 0.000000e+00 0.000000e+00 
0.000000e+00 0.000000e+00 0.000000e+00 
0.000000e+00 0.000000e+00 0.000000e+00 
0.000000e+00 0.000000e+00 0.000000e+00 
0.000000e+00 0.000000e+00 0.000000e+00 
0.000000e+00 0.000000e+00 0.000000e+00 
0.000000e+00 0.000000e+00 0.000000e+00 
0.000000e+00 0.000000e+00 0.000000e+00 
0.000000e+00 0.000000e+00 0.000000e+00 
0.000000e+00 0.000000e+00 0.000000e+00 
0.000000e+00 0.000000e+00 0.000000e+00 
0.000000e+00 0.000000e+00 0.000000e+00 
0.000000e+00 0.000000e+00 0.000000e+00 
0.000000e+00 0.000000e+00 0.000000e+00 
0.000000e+00 0.000000e+00 0.000000e+00 
0.000000e+00 0.000000e+00 0.000000e+00 
0.000000e+00 0.000000e+00 0.000000e+00 
0.000000e+00 0.000000e+00 0.000000e+00 
0.000000e+00 0.000000e+00 0.000000e+00 
0.000000e+00 0.000000e+00 0.000000e+00 
0.000000e+00 0.000000e+00 0.000000e+00 
0.000000e+00 0.000000e+00 0.000000e+00 
0.000000e+00 0.000000e+00 0.000000e+00 
0.000000e+00 0.000000e+00 0.000000e+00 
0.000000e+00 0.000000e+00 0.000000e+00 
0.000000e+00 0.000000e+00 0.000000e+00 
0.000000e+00 0.000000e+00 0.000000e+00 
0.000000e+00 0.000000e+00 0.000000e+00 
0.000000e+00 0.000000e+00 0.000000e+00 
0.000000e+00 0.000000e+00 0.000000e+00 
0.000000e+00 0.000000e+00 0.000000e+00 
0.000000e+00 0.000000e+00 0.000000e+00 
0.000000e+00 0.000000e+00 0.000000e+00 
0.000000e+00 0.000000e+00 0.000000e+00 
0.000000e+00 0.000000e+00 0.000000e+00 
0.000000e+00 0.000000e+00 0.000000e+00 