# vtk DataFile Version 3.1
*description-name of input file* step:3101 
ASCII
DATASET UNSTRUCTURED_GRID
POINTS 1605 FLOAT
-7.204112e-09 -5.568761e-09 -1.297469e-10
-7.846956e-09 -4.652977e-09 -5.657428e-10
-6.264858e-09 -4.868445e-09 -7.538981e-10
-7.570086e-09 -4.171273e-09 2.245757e-09
-5.607007e-09 -6.052680e-09 -1.013628e-10
1.213155e-08 6.930993e-09 -1.063817e-08
1.393649e-08 7.002660e-09 -1.120579e-08
1.282192e-08 5.473331e-09 -1.201002e-08
-6.522640e-09 -6.168622e-09 8.909431e-10
-6.287057e-09 -2.781303e-09 6.461986e-10
-4.457309e-09 -4.609082e-09 -9.432734e-10
-6.203839e-09 -2.981101e-09 -2.600669e-10
-5.633599e-09 -5.217356e-09 2.194065e-09
-5.981238e-09 -3.536209e-09 1.585620e-09
-5.340075e-09 -3.491700e-09 -1.594648e-09
-7.408136e-09 -4.164465e-09 3.139552e-09
-3.686658e-09 -5.664904e-09 2.789530e-10
-6.505425e-09 -1.054013e-09 1.410999e-11
-5.417043e-09 -1.532575e-09 -7.574513e-10
-3.897899e-09 -4.033689e-09 -3.153746e-09
-5.180088e-09 -2.407632e-09 -3.149103e-09
-3.758250e-09 -1.953423e-09 -4.134990e-09
-6.519335e-09 -2.594689e-09 2.244668e-09
-5.619109e-09 1.713858e-11 -2.417289e-09
-6.208953e-09 6.409329e-10 -1.092502e-09
-3.401533e-09 -4.694137e-09 1.966050e-09
-7.205505e-09 -1.101506e-09 1.191044e-09
-5.815251e-09 -3.456772e-09 3.914858e-09
-4.118903e-09 -2.148105e-09 -3.342093e-10
-8.167349e-09 -2.046227e-09 2.946031e-09
-2.600164e-09 -4.347339e-09 -2.296204e-09
-2.885841e-09 -3.318468e-09 -4.013355e-09
-2.043203e-09 -4.135608e-09 -3.465067e-09
-3.704942e-09 -3.606921e-09 -4.947795e-10
-6.101885e-09 -2.354679e-09 4.126292e-09
-4.261445e-09 -7.547261e-10 -2.154405e-09
-5.928300e-09 -6.447600e-10 2.230137e-09
-4.811045e-09 -2.188225e-10 6.428246e-10
-2.827825e-09 -2.147848e-09 -1.865150e-09
-4.140563e-09 -4.021639e-09 3.827792e-09
-4.765265e-09 1.719535e-10 -5.212461e-10
-4.029535e-09 6.733680e-10 -4.998479e-09
-4.035451e-09 5.595171e-10 -3.012522e-09
-5.050726e-09 1.017938e-09 -3.564952e-09
-4.197274e-09 -2.452410e-09 2.365912e-09
-1.545633e-09 -3.190488e-09 -6.719329e-10
-4.725710e-09 2.454949e-09 -4.396120e-09
-2.924888e-09 -1.428703e-09 -3.175950e-09
-2.941540e-09 1.967363e-10 -2.521172e-09
-1.703877e-09 -1.813069e-09 -3.201503e-09
-3.180910e-09 4.632114e-10 -8.591954e-10
-3.265032e-09 -2.013533e-09 3.471700e-10
-3.439924e-09 4.274693e-11 -4.948748e-09
-1.785287e-09 -2.351360e-09 -1.682164e-09
-3.714288e-09 -6.692495e-10 8.207419e-09
-2.098404e-09 -2.026825e-09 7.272947e-09
-1.810487e-09 4.652221e-10 7.370849e-09
-1.272099e-09 9.853437e-10 -4.063204e-09
-6.037230e-09 -3.104497e-09 6.257932e-09
-4.429687e-09 2.327487e-09 -2.641431e-09
-3.751271e-09 -2.684389e-09 3.984893e-09
-4.329651e-09 -4.512350e-10 2.746531e-09
-3.974187e-09 -1.450734e-09 1.499219e-09
-5.697034e-09 2.062617e-09 -4.224026e-10
-5.047715e-09 9.078230e-10 1.190632e-09
-6.539303e-09 1.581328e-09 2.155989e-09
-4.918533e-09 -4.273097e-09 5.961442e-09
-4.723228e-09 -3.820436e-09 7.428973e-09
-6.239794e-09 -1.652509e-09 6.570679e-09
-1.913137e-09 1.852515e-09 2.259719e-09
-2.007111e-10 1.972662e-09 4.073117e-09
-1.120167e-09 2.172977e-09 8.645075e-10
-4.670210e-09 3.892040e-10 -7.699791e-10
-3.186067e-09 -4.331883e-09 5.473262e-09
1.010448e-09 3.656505e-10 3.678028e-09
9.255874e-10 1.049155e-09 4.149551e-09
-1.526195e-10 7.822814e-10 5.637517e-09
-5.927415e-09 3.165668e-09 1.368338e-09
-4.885671e-09 -1.609668e-09 5.444217e-09
-1.109686e-09 -3.715401e-11 -1.389279e-09
-4.726370e-09 -2.108032e-09 4.665011e-09
-3.391643e-09 2.291835e-10 8.048570e-10
-2.143911e-09 -4.976563e-10 3.912427e-11
-5.880503e-09 2.131779e-09 4.018332e-09
-2.538169e-09 -5.266468e-09 3.777314e-09
-3.130154e-09 2.461349e-09 -3.988024e-09
-2.247819e-09 -3.630337e-09 2.701360e-09
-5.728851e-09 -6.500436e-10 5.288172e-09
-2.741587e-09 2.189708e-09 -2.319557e-09
-4.261760e-09 -2.767112e-10 4.745787e-09
-2.977889e-09 -2.848483e-09 5.148567e-09
-5.745461e-09 -5.018245e-10 3.908336e-09
-3.097544e-09 -1.085089e-09 4.238432e-09
-5.172327e-10 -1.405125e-09 2.495710e-10
-4.684192e-09 3.394532e-09 2.472559e-09
-3.708235e-09 2.693144e-09 -8.809742e-10
-3.571721e-10 -1.547161e-09 -3.237273e-09
5.487614e-11 -2.786984e-09 -2.692204e-09
-3.899227e-09 -2.287697e-09 8.038721e-09
-5.191078e-09 -1.528457e-09 7.680792e-09
-5.355632e-09 1.255839e-10 7.603048e-09
7.026657e-10 2.276315e-09 3.146926e-09
-3.858567e-09 1.482212e-09 9.478517e-10
-4.152283e-09 2.956919e-09 2.737927e-10
-6.536650e-09 1.012426e-09 4.707799e-09
-4.308786e-09 1.597367e-10 3.411139e-09
-3.715092e-09 -2.758052e-09 6.422962e-09
-6.635328e-11 -4.689359e-11 -3.141821e-09
-1.398357e-09 -2.870713e-09 3.735788e-09
-5.006262e-09 1.220505e-09 6.646363e-09
-3.545728e-09 6.545582e-10 3.270050e-09
-4.279483e-09 2.199949e-09 5.536983e-09
-4.358915e-09 1.956762e-09 3.067304e-09
-3.727948e-10 -4.044409e-09 2.713493e-09
8.521577e-10 -3.494797e-09 4.444514e-09
-4.122424e-09 2.415899e-09 1.947113e-09
6.366659e-10 -1.664272e-09 -4.737940e-10
-4.504931e-09 2.862531e-09 4.165075e-09
1.266560e-09 -1.256339e-09 -3.787408e-09
-8.455635e-10 -4.070044e-09 6.326984e-09
-5.409379e-10 -5.588461e-10 1.258260e-09
-2.269615e-09 -3.180693e-09 6.402835e-09
-1.980248e-09 -2.160457e-09 5.499195e-09
-1.504652e-09 -4.647668e-10 2.686548e-09
-1.222162e-09 -1.791272e-09 4.445017e-09
-2.814118e-09 1.226625e-09 3.647971e-09
1.851140e-09 -1.102464e-09 -1.701536e-09
7.333388e-10 6.142770e-10 -1.306268e-09
1.278122e-09 -6.245929e-10 5.917614e-09
-3.138926e-09 1.090465e-09 5.897595e-09
8.006178e-10 4.925412e-10 -3.371076e-09
1.037514e-09 -4.693257e-09 3.146156e-09
-9.103113e-10 -8.475096e-10 3.920800e-09
1.148653e-09 -1.021004e-09 -1.752855e-10
6.355928e-10 -3.473604e-09 5.486679e-09
-2.964156e-09 8.003251e-10 7.287867e-09
-2.636264e-09 2.270257e-09 5.480104e-09
-1.209930e-09 -1.904387e-09 6.631375e-09
1.830504e-09 -4.519229e-09 3.810582e-09
1.963376e-09 -3.593391e-09 2.683957e-09
-3.851766e-10 -1.583444e-09 2.891329e-09
-2.907899e-10 -2.699399e-09 6.951403e-09
1.328883e-09 -1.747890e-09 1.843203e-09
1.755275e-09 -4.304041e-10 -2.497282e-09
-1.138186e-09 1.391697e-09 3.604879e-09
-9.026773e-10 -1.237906e-09 8.052248e-09
1.692287e-09 4.937653e-10 8.261007e-12
2.510502e-09 -3.553973e-09 4.812772e-09
3.290413e-09 -3.798900e-09 3.747794e-09
1.529301e-09 9.795743e-10 -1.409950e-09
4.015621e-10 -2.087570e-09 6.378646e-09
-1.655509e-09 8.779332e-10 5.179627e-09
3.115710e-09 -5.927366e-10 1.066527e-09
2.611840e-09 3.937963e-10 -4.144629e-09
1.852165e-09 -2.836070e-09 5.091210e-09
3.625526e-09 -2.491904e-09 2.534012e-09
3.325031e-09 3.287691e-10 -2.280989e-09
2.686559e-09 2.386359e-09 -2.666433e-09
2.847443e-09 2.314338e-09 -4.341527e-09
3.579078e-09 1.080216e-09 -3.770915e-09
4.585322e-09 1.830236e-09 -5.426024e-09
1.303376e-09 -1.398305e-09 4.379681e-09
7.056241e-10 -7.006518e-10 7.378943e-09
2.691094e-09 -8.489069e-10 2.114168e-09
1.363304e-09 1.191409e-09 5.368341e-10
1.950697e-09 1.424731e-09 -3.850464e-10
4.556891e-09 1.589210e-09 -3.553361e-09
4.530450e-10 1.522394e-09 7.281371e-09
1.412520e-09 1.084534e-09 2.138986e-09
2.967414e-09 -2.248932e-09 3.484364e-09
2.119524e-09 7.036099e-11 3.411257e-09
3.421649e-09 -9.347400e-10 2.175317e-09
4.234199e-09 2.783084e-09 -3.520503e-09
2.913947e-09 7.834663e-10 -7.416334e-10
3.075340e-09 1.274682e-09 -1.852218e-09
4.735237e-09 2.705416e-09 -4.988384e-09
3.420582e-09 1.248661e-09 9.501910e-10
5.306771e-09 1.999145e-09 -5.953055e-09
5.139189e-09 1.588359e-09 -4.777539e-09
3.518459e-09 -1.634843e-10 1.285420e-10
3.406827e-09 1.188095e-09 2.690872e-09
6.481691e-09 1.404625e-09 -5.696128e-09
5.840472e-09 2.826339e-09 -4.028867e-09
7.480001e-09 3.005011e-09 -6.732284e-09
6.978399e-09 1.978749e-09 -4.834175e-09
7.262140e-09 2.332900e-09 -6.407088e-09
6.024111e-09 3.336693e-09 -5.213369e-09
7.112157e-09 3.136958e-09 -5.502858e-09
8.640858e-09 2.740569e-09 -5.594276e-09
8.446224e-09 2.989240e-09 -7.152317e-09
8.872208e-09 4.087592e-09 -6.493224e-09
9.896319e-09 3.101767e-09 -6.905321e-09
1.026467e-08 4.528727e-09 -7.984328e-09
1.033051e-08 5.160263e-09 -7.829542e-09
9.373557e-09 3.847176e-09 -5.718676e-09
1.121846e-08 4.527956e-09 -6.860985e-09
1.023489e-08 4.891844e-09 -6.076208e-09
1.072647e-08 5.005604e-09 -8.748322e-09
1.134038e-08 6.593898e-09 -7.528585e-09
1.133698e-08 5.206516e-09 -6.534443e-09
1.276802e-08 5.111248e-09 -8.156179e-09
1.109417e-08 6.761605e-09 -1.000566e-08
1.152530e-08 6.010465e-09 -1.047461e-08
1.116545e-08 6.089392e-09 -8.945173e-09
1.193295e-08 4.956768e-09 -8.873221e-09
1.161683e-08 5.851669e-09 -7.084641e-09
1.294452e-08 5.654188e-09 -8.080348e-09
1.335271e-08 4.878030e-09 -8.714564e-09
1.399480e-08 4.717038e-09 -1.043697e-08
1.178339e-08 6.756162e-09 -8.693462e-09
1.444062e-08 6.640265e-09 -1.053131e-08
1.417436e-08 6.575976e-09 -9.018911e-09
1.389692e-08 7.696895e-09 -9.454274e-09
1.739999e-09 1.202152e-09 -8.974983e-10
-4.311228e-09 -3.054066e-09 7.733847e-09
7.371071e-09 2.668955e-09 -6.569686e-09
7.296079e-09 3.070984e-09 -6.117571e-09
1.247673e-08 6.202162e-09 -1.132410e-08
2.391943e-09 1.220035e-09 7.435126e-10
-3.973087e-09 3.175824e-10 -6.902207e-10
7.876507e-09 2.938763e-09 -5.548567e-09
5.793345e-10 4.108710e-10 7.330157e-09
-1.881737e-10 2.885615e-10 -1.347774e-09
-2.884683e-09 -9.755561e-10 -2.193161e-09
7.963113e-09 2.997125e-09 -6.942300e-09
-4.740207e-09 1.672712e-09 -3.103191e-09
-5.793509e-09 1.244575e-09 1.673310e-09
-1.062991e-10 1.220426e-09 3.877215e-09
1.290749e-09 -1.011449e-09 5.148647e-09
1.029759e-08 4.844495e-09 -7.906935e-09
-4.618987e-09 -3.762694e-09 -2.374197e-09
-4.137354e-09 2.686409e-09 1.110453e-09
-3.364580e-09 -2.766436e-09 4.566730e-09
-6.233359e-09 2.373498e-09 1.762163e-09
1.127772e-08 4.867236e-09 -6.697714e-09
1.502128e-10 1.152338e-09 6.459444e-09
3.334928e-10 2.836917e-10 -2.224045e-09
3.624381e-10 1.510908e-09 4.111334e-09
-4.806020e-09 -1.858850e-09 5.054614e-09
-1.689303e-09 -2.515585e-09 4.617491e-09
-4.418238e-09 3.175725e-09 1.373176e-09
-2.294859e-09 -2.565769e-09 -3.607429e-09
1.337920e-08 6.237996e-09 -1.160791e-08
[...]
POINT_DATA 1605
VECTORS vector_force float
-2.211291e+02 9.929588e+02 1.524549e+02 
4.975200e+02 8.757277e+02 4.692738e+02 
1.545056e+02 6.148729e+02 5.397802e+01 
4.060918e+02 -5.170323e+02 5.648860e+02 
-9.315965e+02 -3.223805e+01 -2.096761e+02 
2.109372e+01 -5.493932e+02 -6.948422e+02 
-1.912511e+01 1.717051e+01 -5.930224e+02 
1.397155e+03 -3.184223e+02 8.227021e+01 
-2.854368e+01 6.915291e+02 -3.207345e+02 
1.805212e+02 3.407674e+02 4.795398e+02 
-1.873582e+02 6.963150e+02 5.638307e+02 
-1.482071e+02 1.065255e+03 4.485509e+02 
3.985060e+02 1.229087e+02 -3.665969e+02 
-1.678241e+02 4.080061e+02 -4.343929e+02 
-7.052742e+02 9.581867e+02 -2.394006e+02 
1.219019e+03 -1.999827e+02 -2.681942e+02 
-5.969817e+02 7.972191e+02 6.156494e+02 
-4.372796e+02 7.043664e+02 -1.089064e+02 
3.946803e+02 3.061023e+02 6.915354e+01 
3.043194e+02 7.873073e+02 -3.516832e+01 
-3.352323e+02 -8.548845e+02 -6.330095e+02 
6.381324e+00 -6.229330e+02 -1.397382e+02 
-2.706531e+02 4.196282e+02 -2.611172e+02 
-8.729071e+02 -5.637261e+02 -1.203520e+03 
-1.225814e+03 1.054378e+03 -1.323899e+03 
3.081388e+02 2.144591e+02 2.216077e+02 
-1.115953e+02 1.990103e+02 -1.864852e+02 
4.971851e+02 -2.366912e+02 -8.058005e+01 
2.221496e+01 9.844137e+02 5.832651e+02 
-4.808520e+02 -6.338416e+02 5.749114e+02 
-2.200277e+02 2.817330e+02 3.077926e+01 
1.804564e+02 -4.712570e+02 -1.344858e+02 
-6.378487e+02 -9.347572e+01 1.832920e+02 
-4.222701e+02 7.659374e+02 -7.939232e+01 
8.617928e+01 -5.653696e+02 1.516450e+02 
5.337731e+02 -1.270347e+03 4.008224e+02 
-3.018793e+02 5.565204e+02 4.827271e+02 
-5.349025e+02 -4.800348e+01 9.118722e+01 
-7.058925e+01 -1.096397e+02 -1.399628e+02 
1.854668e+02 3.196627e+01 -1.289665e+02 
-1.022016e+03 -5.835555e+01 -5.354273e+01 
-7.606133e+02 -1.020721e+03 1.054616e+03 
-4.474148e+02 -6.191214e+02 1.499807e+02 
6.783538e+02 -8.936728e+02 -3.587355e+02 
-9.970676e+00 3.899071e+02 -6.900882e+01 
-1.213794e+02 1.715172e+02 8.908867e+02 
-1.250288e+03 -1.220084e+03 4.765771e+02 
4.239118e+02 -4.894059e+02 -1.894125e+02 
-4.739414e+01 -6.013749e+01 9.427219e+01 
-7.270553e+01 -6.690321e+02 8.750822e+02 
-2.336756e+02 -1.833257e+02 5.071990e+02 
8.979895e+01 6.469836e+02 -5.257764e+02 
-6.649380e+02 -1.254732e+03 4.200212e+02 
2.375148e+02 -6.098515e+02 -1.101787e+02 
1.419856e+03 2.953973e+02 -6.322212e+01 
9.472369e+02 6.035339e+02 -2.857644e+02 
4.973985e+02 2.583247e+02 -5.134438e+02 
2.925847e+02 -1.264123e+03 5.448428e+02 
-1.638912e+02 5.867381e+02 5.204777e+02 
-2.810147e+02 -6.065006e+02 2.874256e+02 
-5.584726e+02 -7.405642e+02 -6.838187e+02 
-5.269259e+02 9.735762e+01 2.290177e+02 
2.586561e+02 5.895083e+02 2.616067e+02 
7.311192e+02 -1.339336e+02 4.747287e+02 
6.427206e+02 -1.533894e+02 1.951127e+02 
5.072678e+02 -5.617769e+01 -6.063507e+02 
-8.735548e+01 8.871899e+02 -4.316338e+02 
-3.444281e+02 7.109018e+02 7.241626e+02 
6.270316e+02 6.099354e+02 7.020863e+02 
-2.893695e+02 5.199601e+01 -6.267498e+02 
-3.753634e+01 -6.675249e+01 6.763062e+02 
-3.460524e+02 8.144100e+02 2.222284e+02 
1.461669e+03 4.470389e+01 -4.867023e+02 
-4.774065e+01 6.845112e+01 -1.377514e+02 
1.651644e+02 -9.667066e+02 -4.196833e+01 
-2.480213e+01 -7.765095e+02 2.692018e+02 
5.109755e+02 -4.982752e+02 -2.975867e+01 
-4.350717e+02 4.112796e+02 4.267470e+02 
1.882002e+02 7.201324e+01 4.567926e+01 
-1.882712e+02 1.268723e+02 -4.030427e+02 
-9.471186e+00 -6.527485e+02 2.727911e+02 
-1.534880e+02 9.229710e+02 4.688415e+02 
2.021084e+02 3.910528e+02 2.151562e+02 
-3.166427e+01 -2.141620e+01 -7.155536e+02 
-1.835091e+02 1.566965e+02 6.474538e+02 
-4.405386e+02 -1.130908e+03 -2.660034e+02 
-2.721082e+02 -2.912727e+02 -6.154409e+02 
2.821550e+02 4.670713e+02 -9.907163e+01 
-2.990419e+02 -2.038235e+02 1.033486e+03 
-2.822204e+02 -3.390230e+01 -4.055869e+02 
-7.932154e-01 1.320873e+02 1.899067e+02 
7.355096e+02 -8.919591e+02 7.245793e+02 
1.362561e+02 1.124976e+02 -1.443353e+02 
-2.189117e+02 4.217319e+02 4.120976e+02 
-3.316953e+02 -1.838072e+02 -1.097123e+03 
-1.164989e+02 -8.099474e+02 -7.734024e+01 
1.283826e+01 -6.675358e+02 6.893872e+02 
1.434540e+02 -1.317492e+03 8.550249e+02 
1.281329e+03 -1.810115e+02 -1.427404e+02 
1.463565e+03 -4.671861e+02 2.647382e+02 
1.721698e+03 -6.740055e+02 8.486441e+02 
1.122482e+02 -5.446765e+02 3.984227e+02 
7.925621e+02 2.450549e+01 -4.668108e+02 
1.094888e+02 1.269178e+02 -2.759413e+02 
-4.177969e+02 1.683298e+02 1.745315e+02 
7.432335e+02 5.997407e+02 3.300094e+01 
2.248776e+02 -3.096423e+02 -2.188090e+02 
1.131017e+02 -1.822130e+02 -1.369815e+02 
-5.917804e+02 2.731804e+02 4.053373e+02 
4.187939e+02 -5.991760e+02 9.137686e+02 
5.021077e+02 -4.049560e+02 5.368045e+02 
-3.201988e+02 5.857370e+02 2.630395e+02 
5.477663e+01 6.500289e+01 6.081739e+02 
4.645580e+01 -2.764265e+02 -1.164473e+02 
-2.498807e+01 -4.900080e+01 3.540993e+02 
5.701845e+01 -7.779893e+02 5.415846e+02 
-1.692604e+02 2.433703e+02 3.159632e+02 
-8.548652e+02 -2.231907e+02 -1.721357e+02 
-1.014829e+03 -1.045914e+03 -8.414738e+02 
-2.154760e+02 3.653506e+02 2.894326e+02 
1.515921e+02 -3.369612e+02 1.271226e+02 
3.278433e+01 -3.757582e+02 -5.801435e+02 
-1.308088e+02 6.986321e+01 4.726343e+02 
3.498722e+02 3.167995e+02 2.354651e+02 
-2.300271e+02 -9.687906e+01 2.918728e+02 
-5.378270e+01 -2.563284e+02 9.689915e+02 
-4.484197e+02 3.512955e+02 -2.138312e+02 
-3.692954e+02 -5.717107e+01 -2.119317e+02 
1.771284e+02 -6.983028e+02 -4.783029e+01 
1.677865e+02 4.680797e+01 6.829328e+02 
2.066448e+02 -1.304158e+03 -8.210334e+02 
-1.414788e+03 4.563499e+01 -4.799978e+02 
-7.380765e+02 1.454464e+02 1.636213e+02 
-4.901404e+02 2.827988e+02 1.765487e+02 
-9.775231e+02 -6.931154e+02 -5.837303e+02 
7.573079e+02 2.671482e+02 4.300113e+02 
-3.474242e+02 4.010318e+02 1.882377e+02 
-3.437719e+02 -1.748377e+02 -3.454447e+01 
-1.256829e+03 -1.233037e+02 -5.472855e+02 
-8.356486e+02 3.361643e+02 -4.788836e+02 
-6.575660e+02 7.285378e+02 -1.370961e+02 
1.519789e+02 -5.959654e+02 -5.463850e+02 
7.129238e+00 3.771551e+02 3.372205e+02 
-8.429667e+02 -4.979035e+02 -4.540447e+02 
-1.940085e+02 5.007747e+02 -2.489357e+02 
1.184946e+03 -8.613961e+02 1.005529e+02 
-5.767844e+02 8.699751e+01 4.534411e+01 
7.541196e+02 -5.546602e+02 9.497114e+02 
-5.393789e+02 -2.213745e+02 -3.435849e+02 
-7.008246e+02 -2.094572e+02 6.251521e+01 
-1.252262e+02 -5.671386e+00 8.046180e+01 
4.644854e+02 1.686182e+02 -2.472078e+02 
-6.352008e+02 1.514471e+02 -3.656286e+02 
-6.306268e+02 -2.123898e+02 -3.500591e+02 
-4.073811e+01 -1.494498e+02 -1.717878e+02 
-1.000798e+03 1.152761e+03 1.871218e+02 
1.310561e+02 6.881421e+01 9.768161e+01 
-5.219016e+02 -5.962670e+01 -8.150222e+02 
1.661753e+02 -4.336708e+02 2.779898e+02 
-3.758391e+01 -2.365245e+02 -1.490594e+02 
1.552021e+01 -6.148832e+02 -1.412864e+02 
-8.656643e+02 -2.462846e+02 -1.075415e+02 
3.648998e+02 -4.188834e+01 2.803346e+02 
-2.352530e+02 -7.301570e+01 -1.784749e+02 
-3.360854e+02 4.310696e+02 -6.932088e+02 
-1.364812e+01 4.830439e+02 -7.606980e+02 
3.115819e+02 -3.619112e+02 -1.513750e+02 
5.386922e+02 -3.519951e+01 -7.322393e+02 
7.746973e+01 1.779539e+02 1.602407e+02 
-2.977228e+02 5.222298e+02 -2.179872e+02 
-3.817974e+02 3.521716e+02 -9.126348e+02 
-1.848491e+02 9.570201e+02 -2.003998e+02 
-5.931996e+01 4.954755e+02 -1.096792e+02 
-1.755157e+02 -8.817276e+02 3.699703e+01 
-1.324849e+02 -8.512777e+02 -3.606801e+02 
-6.803172e+01 -1.474735e+02 -1.028714e+03 
1.853175e+02 -2.883055e+02 -4.085895e+02 
6.242506e+01 3.045602e+02 -7.622274e+02 
-2.433685e+02 4.475941e+02 -4.244919e+02 
-4.697131e+02 -4.291881e+02 -4.181364e+02 
-3.984414e+02 2.926146e+02 6.380941e+02 
7.381846e+02 -4.191579e+02 1.092965e+02 
-1.341663e+03 -6.047003e+00 -1.216608e+02 
2.731558e+02 -1.057172e+02 3.509202e+02 
-2.407475e+02 7.564171e+01 1.787614e+02 
8.297112e+02 -3.429450e+02 -1.592493e+02 
-6.291897e+02 -3.857130e+02 8.822941e+02 
-2.139027e+02 -8.429287e+02 1.445336e+02 
2.777734e+02 -2.700937e+02 -8.753365e+01 
2.734445e+02 -6.013208e+02 6.233670e+02 
3.824448e+02 -2.276313e+02 4.100508e+02 
-9.546436e+02 2.687144e+02 8.609057e+02 
5.766629e+02 -4.369858e+02 -6.559949e+02 
2.703986e+02 -7.901763e+02 -8.202114e+02 
5.023939e+02 4.448161e+02 2.333299e+02 
2.323399e+02 1.326460e+02 8.190110e+01 
2.285928e+02 1.268191e+02 6.224001e+01 
-2.932139e+02 -5.633275e+02 1.223949e+02 
-1.209042e+03 2.253507e+02 3.068244e+02 
-4.488159e+02 1.457113e+02 -1.461716e+02 
8.112760e+02 6.398464e+02 -1.245099e+02 
-1.065592e+03 -8.170510e+02 -2.922682e+02 
5.712845e+02 -6.601623e+02 -3.186799e+02 
6.711282e+02 -1.631628e+02 3.391911e+02 
7.861257e+02 2.802481e+02 8.876582e+01 
-6.814378e+02 3.052215e+02 -1.362197e+02 
3.094951e+02 6.582298e+02 1.402278e+02 
-3.467647e+02 1.892200e+02 4.046351e+02 
4.043398e+02 -4.583043e+02 5.612783e+02 
-3.088719e+02 -5.696735e+02 7.176842e+02 
1.961389e+02 9.008035e+01 1.060616e+02 
4.173641e+02 6.743639e+02 -1.054973e+02 
-7.210520e+02 -2.234045e+02 1.150507e+02 
0.000000e+00 0.000000e+00 0.000000e+00 
0.000000e+00 0.000000e+00 0.000000e+00 
0.000000e+00 0.000000e+00 0.000000e+00 
0.000000e+00 0.000000e+00 0.000000e+00 
0.000000e+00 0.000000e+00 0.000000e+00 
0.000000e+00 0.000000e+00 0.000000e+00 
0.000000e+00 0.000000e+00 0.000000e+00 
0.000000e+00 0.000000e+00 0.000000e+00 
0.000000e+00 0.000000e+00 0.000000e+00 
0.000000e+00 0.000000e+00 0.000000e+00 
0.000000e+00 0.000000e+00 0.000000e+00 
0.000000e+00 0.000000e+00 0.000000e+00 
0.000000e+00 0.000000e+00 0.000000e+00 
0.000000e+00 0.000000e+00 0.000000e+00 
0.000000e+00 0.000000e+00 0.000000e+00 
0.000000e+00 0.000000e+00 0.000000e+00 
0.000000e+00 0.000000e+00 0.000000e+00 
0.000000e+00 0.000000e+00 0.000000e+00 
0.000000e+00 0.000000e+00 0.000000e+00 
0.000000e+00 0.000000e+00 0.000000e+00 
0.000000e+00 0.000000e+00 0.000000e+00 
0.000000e+00 0.000000e+00 0.000000e+00 
0.000000e+00 0.000000e+00 0.000000e+00 
0.000000e+00 0.000000e+00 0.000000e+00 
0.000000e+00 0.000000e+00 0.000000e+00 
0.000000e+00 0.000000e+00 0.000000e+00 
0.000000e+00 0.000000e+00 0.000000e+00 
0.000000e+00 0.000000e+00 0.000000e+00 
0.000000e+00 0.000000e+00 0.000000e+00 
0.000000e+00 0.000000e+00 0.000000e+00 
0.000000e+00 0.000000e+00 0.000000e+00 
0.000000e+00 0.000000e+00 0.000000e+00 
0.000000e+00 0.000000e+00 0.000000e+00 
0.000000e+00 0.000000e+00 0.000000e+00 
0.000000e+00 0.000000e+00 0.000000e+00 
0.000000e+00 0.000000e+00 0.000000e+00 
0.000000e+00 0.000000e+00 0.000000e+00 
0.000000e+00 0.000000e+00 0.000000e+00 
0.000000e+00 0.000000e+00 0.000000e+00 
0.000000e+00 0.000000e+00 0.000000e+00 
0.000000e+00 0.000000e+00 0.000000e+00 
0.000000e+00 0.000000e+00 0.000000e+00 
0.000000e+00 0.000000e+00 0.000000e+00 
0.000000e+00 0.000000e+00 0.000000e+00 
0.000000e+00 0.000000e+00 0.000000e+00 
0.000000e+00 0.000000e+00 0.000000e+00 
0.000000e+00 0.000000e+00 0.000000e+00 
0.000000e+00 0.000000e+00 0.000000e+00 
0.000000e+00 0.000000e+00 0.000000e+00 
0.000000e+00 0.000000e+00 0.000000e+00 
0.000000e+00 0.000000e+00 0.000000e+00 
0.000000e+00 0.000000e+00 0.000000e+00 
0.000000e+00 0.000000e+00 0.000000e+00 
0.000000e+00 0.000000e+00 0.000000e+00 
0.000000e+00 0.000000e+00 0.000000e+00 
0.000000e+00 0.000000e+00 0.000000e+00 
0.000000e+00 0.000000e+00 0.000000e+00 
0.000000e+00 0.000000e+00 0.000000e+00 
0.000000e+00 0.000000e+00 0.000000e+00 
0.000000e+00 0.000000e+00 0.000000e+00 
0.000000e+00 0.000000e+00 0.000000e+00 
0.000000e+00 0.000000e+00 0.000000e+00 
0.000000e+00 0.000000e+00 0.000000e+00 
0.000000e+00 0.000000e+00 0.000000e+00 
0.000000e+00 0.000000e+00 0.000000e+00 
0.000000e+00 0.000000e+00 0.000000e+00 
0.000000e+00 0.000000e+00 0.000000e+00 
0.000000e+00 0.000000e+00 0.000000e+00 
0.000000e+00 0.000000e+00 0.000000e+00 
0.000000e+00 0.000000e+00 0.000000e+00 
0.000000e+00 0.000000e+00 0.000000e+00 
0.000000e+00 0.000000e+00 0.000000e+00 
0.000000e+00 0.000000e+00 0.000000e+00 
0.000000e+00 0.000000e+00 0.000000e+00 
0.000000e+00 0.000000e+00 0.000000e+00 
0.000000e+00 0.000000e+00 0.000000e+00 
0.000000e+00 0.000000e+00 0.000000e+00 
0.000000e+00 0.000000e+00 0.000000e+00 
0.000000e+00 0.000000e+00 0.000000e+00 
0.000000e+00 0.000000e+00 0.000000e+00 
0.000000e+00 0.000000e+00 0.000000e+00 
0.000000e+00 0.000000e+00 0.000000e+00 
0.000000e+00 0.000000e+00 0.000000e+00 
0.000000e+00 0.000000e+00 0.000000e+00 
0.000000e+00 0.000000e+00 0.000000e+00 
0.000000e+00 0.000000e+00 0.000000e+00 
0.000000e+00 0.000000e+00 0.000000e+00 
0.000000e+00 0.000000e+00 0.000000e+00 
0.000000e+00 0.000000e+00 0.000000e+00 
0.000000e+00 0.000000e+00 0.000000e+00 
0.000000e+00 0.000000e+00 0.000000e+00 
0.000000e+00 0.000000e+00 0.000000e+00 
0.000000e+00 0.000000e+00 0.000000e+00 
0.000000e+00 0.000000e+00 0.000000e+00 
0.000000e+00 0.000000e+00 0.000000e+00 
0.000000e+00 0.000000e+00 0.000000e+00 
0.000000e+00 0.000000e+00 0.000000e+00 
0.000000e+00 0.000000e+00 0.000000e+00 
0.000000e+00 0.000000e+00 0.000000e+00 
0.000000e+00 0.000000e+00 0.000000e+00 
0.000000e+00 0.000000e+00 0.000000e+00 
0.000000e+00 0.000000e+00 0.000000e+00 
0.000000e+00 0.000000e+00 0.000000e+00 
0.000000e+00 0.000000e+00 0.000000e+00 
0.000000e+00 0.000000e+00 0.000000e+00 
0.000000e+00 0.000000e+00 0.000000e+00 
0.000000e+00 0.000000e+00 0.000000e+00 
0.000000e+00 0.000000e+00 0.000000e+00 
0.000000e+00 0.000000e+00 0.000000e+00 
0.000000e+00 0.000000e+00 0.000000e+00 
0.000000e+00 0.000000e+00 0.000000e+00 
0.000000e+00 0.000000e+00 0.000000e+00 
0.000000e+00 0.000000e+00 0.000000e+00 
0.000000e+00 0.000000e+00 0.000000e+00 
0.000000e+00 0.000000e+00 0.000000e+00 
0.000000e+00 0.000000e+00 0.000000e+00 
0.000000e+00 0.000000e+00 0.000000e+00 
0.000000e+00 0.000000e+00 0.000000e+00 
0.000000e+00 0.000000e+00 0.000000e+00 
0.000000e+00 0.000000e+00 0.000000e+00 
0.000000e+00 0.000000e+00 0.000000e+00 
0.000000e+00 0.000000e+00 0.000000e+00 
0.000000e+00 0.000000e+00 0.000000e+00 
0.000000e+00 0.000000e+00 0.000000e+00 
0.000000e+00 0.000000e+00 0.000000e+00 
0.000000e+00 0.000000e+00 0.000000e+00 
0.000000e+00 0.000000e+00 0.000000e+00 
0.000000e+00 0.000000e+00 0.000000e+00 
0.000000e+00 0.000000e+00 0.000000e+00 
0.000000e+00 0.000000e+00 0.000000e+00 
0.000000e+00 0.000000e+00 0.000000e+00 
0.000000e+00 0.000000e+00 0.000000e+00 
0.000000e+00 0.000000e+00 0.000000e+00 
0.000000e+00 0.000000e+00 0.000000e+00 
0.000000e+00 0.000000e+00 0.000000e+00 
0.000000e+00 0.000000e+00 0.000000e+00 
0.000000e+00 0.000000e+00 0.000000e+00 
0.000000e+00 0.000000e+00 0.000000e+00 
0.000000e+00 0.000000e+00 0.000000e+00 
0.000000e+00 0.000000e+00 0.000000e+00 
0.000000e+00 0.000000e+00 0.000000e+00 
0.000000e+00 0.000000e+00 0.000000e+00 
0.000000e+00 0.000000e+00 0.000000e+00 
0.000000e+00 0.000000e+00 0.000000e+00 
0.000000e+00 0.000000e+00 0.000000e+00 
0.000000e+00 0.000000e+00 0.000000e+00 
0.000000e+00 0.000000e+00 0.000000e+00 
0.000000e+00 0.000000e+00 0.000000e+00 
0.000000e+00 0.000000e+00 0.000000e+00 
0.000000e+00 0.000000e+00 0.000000e+00 
0.000000e+00 0.000000e+00 0.000000e+00 
0.000000e+00 0.000000e+00 0.000000e+00 
0.000000e+00 0.000000e+00 0.000000e+00 
0.000000e+00 0.000000e+00 0.000000e+00 
0.000000e+00 0.000000e+00 0.000000e+00 
0.000000e+00 0.000000e+00 0.000000e+00 
0.000000e+00 0.000000e+00 0.000000e+00 
0.000000e+00 0.000000e+00 0.000000e+00 
0.000000e+00 0.000000e+00 0.000000e+00 
0.000000e+00 0.000000e+00 0.000000e+00 
0.000000e+00 0.000000e+00 0.000000e+00 
0.000000e+00 0.000000e+00 0.000000e+00 
0.000000e+00 0.000000e+00 0.000000e+00 
0.000000e+00 0.000000e+00 0.000000e+00 
0.000000e+00 0.000000e+00 0.000000e+00 
0.000000e+00 0.000000e+00 0.000000e+00 
0.000000e+00 0.000000e+00 0.000000e+00 
0.000000e+00 0.000000e+00 0.000000e+00 
0.000000e+00 0.000000e+00 0.000000e+00 
0.000000e+00 0.000000e+00 0.000000e+00 
0.000000e+00 0.000000e+00 0.000000e+00 
0.000000e+00 0.000000e+00 0.000000e+00 
0.000000e+00 0.000000e+00 0.000000e+00 
0.000000e+00 0.000000e+00 0.000000e+00 
0.000000e+00 0.000000e+00 0.000000e+00 
0.000000e+00 0.000000e+00 0.000000e+00 
0.000000e+00 0.000000e+00 0.000000e+00 
0.000000e+00 0.000000e+00 0.000000e+00 
0.000000e+00 0.000000e+00 0.000000e+00 
0.000000e+00 0.000000e+00 0.000000e+00 
0.000000e+00 0.000000e+00 0.000000e+00 
0.000000e+00 0.000000e+00 0.000000e+00 
0.000000e+00 0.000000e+00 0.000000e+00 
0.000000e+00 0.000000e+00 0.000000e+00 
0.000000e+00 0.000000e+00 0.000000e+00 
0.000000e+00 0.000000e+00 0.000000e+00 
0.000000e+00 0.000000e+00 0.000000e+00 
0.000000e+00 0.000000e+00 0.000000e+00 
0.000000e+00 0.000000e+00 0.000000e+00 
0.000000e+00 0.000000e+00 0.000000e+00 
0.000000e+00 0.000000e+00 0.000000e+00 
0.000000e+00 0.000000e+00 0.000000e+00 
0.000000e+00 0.000000e+00 0.000000e+00 
0.000000e+00 0.000000e+00 0.000000e+00 
0.000000e+00 0.000000e+00 0.000000e+00 
0.000000e+00 0.000000e+00 0.000000e+00 
0.000000e+00 0.000000e+00 0.000000e+00 
0.000000e+00 0.000000e+00 0.000000e+00 
0.000000e+00 0.000000e+00 0.000000e+00 
0.000000e+00 0.000000e+00 0.000000e+00 
0.000000e+00 0.000000e+00 0.000000e+00 
0.000000e+00 0.000000e+00 0.000000e+00 
0.000000e+00 0.000000e+00 0.000000e+00 
0.000000e+00 0.000000e+00 0.000000e+00 
0.000000e+00 0.000000e+00 0.000000e+00 
0.000000e+00 0.000000e+00 0.000000e+00 
0.000000e+00 0.000000e+00 0.000000e+00 
0.000000e+00 0.000000e+00 0.000000e+00 
0.000000e+00 0.000000e+00 0.000000e+00 
0.000000e+00 0.000000e+00 0.000000e+00 
0.000000e+00 0.000000e+00 0.000000e+00 
0.000000e+00 0.000000e+00 0.000000e+00 
0.000000e+00 0.000000e+00 0.000000e+00 
0.000000e+00 0.000000e+00 0.000000e+00 
0.000000e+00 0.000000e+00 0.000000e+00 
0.000000e+00 0.000000e+00 0.000000e+00 
0.000000e+00 0.000000e+00 0.000000e+00 
0.000000e+00 0.000000e+00 0.000000e+00 
0.000000e+00 0.000000e+00 0.000000e+00 
0.000000e+00 0.000000e+00 0.000000e+00 
0.000000e+00 0.000000e+00 0.000000e+00 
0.000000e+00 0.000000e+00 0.000000e+00 
0.000000e+00 0.000000e+00 0.000000e+00 
0.000000e+00 0.000000e+00 0.000000e+00 
0.000000e+00 0.000000e+00 0.000000e+00 
0.000000e+00 0.000000e+00 0.000000e+00 
0.000000e+00 0.000000e+00 0.000000e+00 
0.000000e+00 0.000000e+00 0.000000e+00 
0.000000e+00 0.000000e+00 0.000000e+00 
0.000000e+00 0.000000e+00 0.000000e+00 
0.000000e+00 0.000000e+00 0.000000e+00 
0.000000e+00 0.000000e+00 0.000000e+00 
0.000000e+00 0.000000e+00 0.000000e+00 
0.000000e+00 0.000000e+00 0.000000e+00 
0.000000e+00 0.000000e+00 0.000000e+00 
0.000000e+00 0.000000e+00 0.000000e+00 
0.000000e+00 0.000000e+00 0.000000e+00 
0.000000e+00 0.000000e+00 0.000000e+00 
0.000000e+00 0.000000e+00 0.000000e+00 
0.000000e+00 0.000000e+00 0.000000e+00 
0.000000e+00 0.000000e+00 0.000000e+00 
0.000000e+00 0.000000e+00 0.000000e+00 
0.000000e+00 0.000000e+00 0.000000e+00 
0.000000e+00 0.000000e+00 0.000000e+00 
0.000000e+00 0.000000e+00 0.000000e+00 
0.000000e+00 0.000000e+00 0.000000e+00 
0.000000e+00 0.000000e+00 0.000000e+00 
0.000000e+00 0.000000e+00 0.000000e+00 
0.000000e+00 0.000000e+00 0.000000e+00 
0.000000e+00 0.000000e+00 0.000000e+00 
0.000000e+00 0.000000e+00 0.000000e+00 
0.000000e+00 0.000000e+00 0.000000e+00 
0.000000e+00 0.000000e+00 0.000000e+00 
0.000000e+00 0.000000e+00 0.000000e+00 
0.000000e+00 0.000000e+00 0.000000e+00 
0.000000e+00 0.000000e+00 0.000000e+00 
0.000000e+00 0.000000e+00 0.000000e+00 
0.000000e+00 0.000000e+00 0.000000e+00 
0.000000e+00 0.000000e+00 0.000000e+00 
0.000000e+00 0.000000e+00 0.000000e+00 
0.000000e+00 0.000000e+00 0.000000e+00 
0.000000e+00 0.000000e+00 0.000000e+00 
0.000000e+00 0.000000e+00 0.000000e+00 
0.000000e+00 0.000000e+00 0.000000e+00 
0.000000e+00 0.000000e+00 0.000000e+00 
0.000000e+00 0.000000e+00 0.000000e+00 
0.000000e+00 0.000000e+00 0.000000e+00 
0.000000e+00 0.000000e+00 0.000000e+00 
0.000000e+00 0.000000e+00 0.000000e+00 
0.000000e+00 0.000000e+00 0.000000e+00 
0.000000e+00 0.000000e+00 0.000000e+00 
0.000000e+00 0.000000e+00 0.000000e+00 
0.000000e+00 0.000000e+00 0.000000e+00 
0.000000e+00 0.000000e+00 0.000000e+00 
0.000000e+00 0.000000e+00 0.000000e+00 
0.000000e+00 0.000000e+00 0.000000e+00 
0.000000e+00 0.000000e+00 0.000000e+00 