# vtk DataFile Version 3.1
*description-name of input file* step:601 
ASCII
DATASET UNSTRUCTURED_GRID
POINTS 1605 FLOAT
-7.042533e-09 -5.853747e-09 1.153510e-10
-7.550699e-09 -4.602989e-09 -6.722583e-10
-6.273204e-09 -5.071408e-09 -7.043772e-10
-7.681816e-09 -4.219059e-09 1.934576e-09
-5.349510e-09 -5.958738e-09 -8.919405e-11
1.217962e-08 7.114711e-09 -1.072006e-08
1.375348e-08 7.292106e-09 -1.072145e-08
1.283047e-08 5.957466e-09 -1.193383e-08
-5.901127e-09 -6.196562e-09 9.698318e-10
-6.181334e-09 -3.089566e-09 8.463186e-10
-4.315950e-09 -4.535700e-09 -1.120509e-09
-6.245029e-09 -2.937722e-09 -5.741620e-10
-5.495864e-09 -5.338458e-09 2.432206e-09
-5.874050e-09 -3.720246e-09 1.871326e-09
-5.142617e-09 -3.711768e-09 -1.515910e-09
-7.199728e-09 -4.109847e-09 3.218130e-09
-3.296560e-09 -5.305193e-09 2.611546e-10
-6.738739e-09 -1.371278e-09 8.812706e-11
-5.521150e-09 -1.602985e-09 -1.160391e-09
-3.937769e-09 -4.139317e-09 -3.621558e-09
-5.249666e-09 -2.850355e-09 -2.798889e-09
-4.158365e-09 -2.139479e-09 -3.914390e-09
-6.323099e-09 -2.590493e-09 2.406152e-09
-5.966534e-09 2.116238e-10 -2.360849e-09
-6.393321e-09 -3.755845e-11 -1.009757e-09
-3.645636e-09 -4.609501e-09 1.868091e-09
-7.262619e-09 -1.797326e-09 1.344184e-09
-5.828577e-09 -3.824272e-09 4.300931e-09
-4.213644e-09 -2.068385e-09 -3.654367e-10
-7.718184e-09 -2.202009e-09 3.386900e-09
-2.381119e-09 -4.629738e-09 -2.409226e-09
-2.715849e-09 -2.833105e-09 -3.727026e-09
-2.150905e-09 -4.021887e-09 -3.393438e-09
-3.499752e-09 -3.509440e-09 -6.404006e-10
-6.102305e-09 -2.559548e-09 4.282106e-09
-4.289528e-09 -8.757730e-10 -2.323561e-09
-6.463047e-09 -6.101689e-10 2.072965e-09
-4.849299e-09 -4.602983e-10 3.354898e-10
-3.164261e-09 -1.851503e-09 -2.019209e-09
-4.126476e-09 -4.023880e-09 3.812474e-09
-5.014267e-09 3.329602e-10 -8.085555e-10
-3.877657e-09 9.474887e-10 -4.772492e-09
-3.941186e-09 3.436656e-10 -2.928211e-09
-4.755512e-09 1.069048e-09 -3.423838e-09
-4.159812e-09 -2.604675e-09 2.112671e-09
-1.598930e-09 -3.105909e-09 -6.215678e-10
-4.377110e-09 2.610803e-09 -3.905484e-09
-3.103305e-09 -1.506992e-09 -3.441440e-09
-3.306914e-09 -3.242692e-11 -2.881191e-09
-1.710985e-09 -1.455347e-09 -3.583994e-09
-3.493574e-09 4.678565e-10 -9.058928e-10
-3.120959e-09 -1.989487e-09 1.356334e-10
-3.076027e-09 1.927253e-10 -4.674763e-09
-1.836223e-09 -2.193594e-09 -1.867668e-09
-3.971150e-09 -2.949039e-10 8.026562e-09
-2.141651e-09 -1.612625e-09 7.522753e-09
-1.967818e-09 1.461847e-10 7.366366e-09
-1.375748e-09 7.658172e-10 -4.084492e-09
-5.819298e-09 -3.109696e-09 5.976596e-09
-4.191926e-09 2.335941e-09 -2.318974e-09
-3.667578e-09 -2.766232e-09 3.643546e-09
-4.464801e-09 -5.437639e-10 2.542236e-09
-3.942041e-09 -1.517668e-09 1.177923e-09
-5.420785e-09 2.277621e-09 -2.159581e-10
-4.846486e-09 7.954616e-10 1.329311e-09
-6.571059e-09 1.900391e-09 1.719840e-09
-4.552837e-09 -4.412999e-09 5.831452e-09
-4.698615e-09 -3.617997e-09 6.791948e-09
-6.007002e-09 -1.740975e-09 6.775178e-09
-1.940772e-09 1.808259e-09 1.977831e-09
1.131658e-10 2.316396e-09 3.687698e-09
-9.706981e-10 1.670054e-09 7.741011e-10
-4.660165e-09 6.818487e-10 -1.253768e-09
-3.121339e-09 -4.418960e-09 5.348877e-09
1.077873e-09 2.215157e-10 3.716140e-09
8.282423e-10 1.046338e-09 4.254615e-09
-4.560574e-11 6.802354e-10 5.560047e-09
-5.386394e-09 3.304860e-09 9.613729e-10
-4.800551e-09 -1.611981e-09 5.539658e-09
-1.089421e-09 6.170987e-11 -1.437892e-09
-4.544971e-09 -2.252728e-09 4.603566e-09
-3.446271e-09 6.669660e-11 5.024743e-10
-2.244190e-09 -4.415197e-10 -8.495725e-11
-5.800129e-09 2.596281e-09 3.954137e-09
-2.456613e-09 -5.176999e-09 3.701452e-09
-2.852900e-09 2.792680e-09 -3.147769e-09
-2.143088e-09 -3.735399e-09 2.623377e-09
-5.860369e-09 -4.347870e-10 5.366553e-09
-2.524334e-09 1.633324e-09 -2.130946e-09
-4.381392e-09 -3.628211e-11 4.708730e-09
-2.793671e-09 -2.855006e-09 4.815267e-09
-5.785572e-09 -6.352321e-10 4.019177e-09
-3.316919e-09 -9.901306e-10 4.183025e-09
-7.158107e-10 -1.353312e-09 9.382987e-11
-4.306706e-09 3.438860e-09 2.390052e-09
-3.083644e-09 2.808299e-09 -9.196403e-10
-3.320305e-10 -1.430248e-09 -3.361750e-09
2.241449e-10 -2.834835e-09 -2.707905e-09
-3.953086e-09 -2.380890e-09 7.908212e-09
-5.455889e-09 -1.538377e-09 7.963425e-09
-5.420493e-09 2.732684e-10 7.755470e-09
1.021041e-09 2.107259e-09 3.027474e-09
-3.629577e-09 1.279317e-09 7.602876e-10
-3.464956e-09 2.883685e-09 5.306944e-10
-6.413069e-09 1.482112e-09 4.970179e-09
-4.716733e-09 1.280198e-10 3.631850e-09
-3.708370e-09 -2.547223e-09 6.194246e-09
-2.537769e-12 2.127980e-11 -3.142153e-09
-1.362942e-09 -2.747668e-09 3.650782e-09
-4.902941e-09 1.342392e-09 6.688238e-09
-3.489610e-09 7.211239e-10 3.358165e-09
-4.391584e-09 2.172075e-09 5.412775e-09
-4.286859e-09 1.668160e-09 3.063856e-09
-3.253131e-10 -3.840472e-09 2.591322e-09
7.693098e-10 -3.698680e-09 4.146344e-09
-3.996014e-09 2.321769e-09 1.767314e-09
4.192072e-10 -2.035230e-09 -6.346589e-10
-3.864814e-09 2.778938e-09 3.909598e-09
1.250860e-09 -1.140277e-09 -2.961823e-09
-7.197978e-10 -4.051741e-09 6.147898e-09
-7.185845e-10 -6.125066e-10 1.151592e-09
-2.304556e-09 -3.284024e-09 6.637062e-09
-1.877522e-09 -2.183229e-09 5.504714e-09
-1.503854e-09 -3.023423e-10 2.837794e-09
-1.396716e-09 -1.722591e-09 4.305842e-09
-2.526101e-09 1.331022e-09 3.691959e-09
1.556239e-09 -8.640779e-10 -1.348058e-09
4.802758e-10 8.204693e-10 -1.322859e-09
1.473770e-09 -5.583687e-10 5.896827e-09
-3.265690e-09 1.083997e-09 5.946320e-09
8.571007e-10 7.971314e-10 -3.049346e-09
9.259322e-10 -4.462384e-09 2.864427e-09
-8.480206e-10 -6.809717e-10 3.961909e-09
9.514863e-10 -1.200689e-09 -1.883572e-10
4.954257e-10 -3.783998e-09 5.414803e-09
-3.177246e-09 7.775790e-10 7.213782e-09
-2.643497e-09 2.137037e-09 5.469039e-09
-1.228637e-09 -1.802088e-09 6.537968e-09
1.919139e-09 -4.604939e-09 3.738941e-09
1.926077e-09 -3.582648e-09 2.344508e-09
-2.116886e-10 -1.431300e-09 2.710779e-09
-2.048992e-10 -2.808093e-09 6.845124e-09
1.461772e-09 -1.564131e-09 1.682679e-09
1.946469e-09 -1.002317e-10 -2.195157e-09
-8.784418e-10 1.603998e-09 3.585568e-09
-7.810227e-10 -1.450831e-09 7.959445e-09
1.565333e-09 3.864593e-10 -3.550055e-11
2.239445e-09 -3.432773e-09 4.792587e-09
2.780133e-09 -3.994677e-09 3.776635e-09
1.830032e-09 1.435115e-09 -1.240052e-09
5.419364e-10 -2.331822e-09 6.085843e-09
-1.806837e-09 5.817136e-10 5.153735e-09
2.962527e-09 -1.838937e-10 7.008141e-10
2.750226e-09 3.576586e-10 -3.879243e-09
1.636050e-09 -2.676057e-09 4.933699e-09
3.528087e-09 -2.819637e-09 2.540476e-09
3.288765e-09 7.438706e-10 -2.164122e-09
2.738930e-09 2.461854e-09 -2.552016e-09
2.847289e-09 1.997670e-09 -4.125365e-09
3.696083e-09 8.097999e-10 -3.943328e-09
4.054746e-09 1.512210e-09 -5.142693e-09
1.400191e-09 -1.395810e-09 4.277638e-09
6.138285e-10 -9.127437e-10 7.364941e-09
2.580942e-09 -6.059824e-10 2.039030e-09
1.111621e-09 1.442783e-09 5.446535e-10
2.192269e-09 1.632786e-09 -2.799416e-10
4.686519e-09 1.431134e-09 -3.424922e-09
2.128141e-10 1.224381e-09 7.416243e-09
1.418418e-09 1.098221e-09 2.028088e-09
2.803622e-09 -2.252454e-09 3.513044e-09
2.223749e-09 -3.906823e-10 3.396167e-09
3.628280e-09 1.011279e-11 1.871776e-09
4.645048e-09 2.605392e-09 -3.494002e-09
3.133000e-09 8.602145e-10 -8.861217e-10
3.215178e-09 1.907785e-09 -1.683368e-09
4.770028e-09 2.471995e-09 -4.945655e-09
3.319112e-09 9.628815e-10 6.871854e-10
5.335525e-09 1.914031e-09 -5.993233e-09
5.365078e-09 1.525439e-09 -4.686687e-09
3.579213e-09 4.036705e-11 -2.558593e-10
3.215603e-09 8.462111e-10 2.570955e-09
6.280582e-09 1.429548e-09 -6.040707e-09
5.750925e-09 2.822552e-09 -3.894972e-09
7.073269e-09 2.981314e-09 -6.693740e-09
6.717225e-09 2.177606e-09 -4.806877e-09
7.202623e-09 2.135008e-09 -6.588028e-09
6.208529e-09 3.558775e-09 -4.848813e-09
7.390349e-09 3.648126e-09 -5.716602e-09
8.575832e-09 2.960555e-09 -5.839469e-09
8.440201e-09 3.117026e-09 -7.211940e-09
8.322415e-09 4.168614e-09 -7.130123e-09
9.268376e-09 3.180305e-09 -6.879600e-09
1.030136e-08 4.355699e-09 -7.863428e-09
1.021283e-08 4.892316e-09 -7.879672e-09
9.480965e-09 3.896580e-09 -6.320910e-09
1.097137e-08 3.921137e-09 -6.927431e-09
1.016444e-08 4.788098e-09 -6.550129e-09
1.134372e-08 5.094899e-09 -8.676959e-09
1.133825e-08 6.206441e-09 -7.731118e-09
1.122512e-08 5.370049e-09 -6.756519e-09
1.237460e-08 4.707261e-09 -8.401307e-09
1.120849e-08 6.686353e-09 -1.002752e-08
1.155945e-08 5.901260e-09 -1.046994e-08
1.108098e-08 6.144384e-09 -9.032261e-09
1.217085e-08 4.972530e-09 -9.147479e-09
1.175109e-08 5.860306e-09 -7.305173e-09
1.263305e-08 5.717001e-09 -8.053221e-09
1.336516e-08 5.007196e-09 -9.141269e-09
1.375125e-08 5.373270e-09 -1.052718e-08
1.206954e-08 7.042699e-09 -8.789519e-09
1.435426e-08 6.505600e-09 -1.011709e-08
1.368579e-08 6.260800e-09 -8.711839e-09
1.362158e-08 7.533523e-09 -9.248280e-09
2.011150e-09 1.533950e-09 -7.599967e-10
-4.325851e-09 -2.999443e-09 7.350080e-09
7.137946e-09 2.558161e-09 -6.640884e-09
7.231809e-09 3.314720e-09 -6.205171e-09
1.250505e-08 6.536088e-09 -1.132695e-08
2.215367e-09 1.202832e-09 6.159195e-10
-4.253921e-09 4.004084e-10 -8.572241e-10
7.983090e-09 3.304340e-09 -5.778036e-09
4.133213e-10 1.558189e-10 7.390592e-09
-3.045726e-10 4.410896e-10 -1.380376e-09
-3.235588e-09 -9.419651e-10 -2.450200e-09
7.756735e-09 3.049170e-09 -6.952840e-09
-4.473719e-09 1.702494e-09 -2.871406e-09
-5.708773e-09 1.347926e-09 1.524575e-09
-2.509978e-11 1.325168e-09 3.920092e-09
1.436980e-09 -9.770893e-10 5.087233e-09
1.025709e-08 4.624008e-09 -7.871550e-09
-4.540193e-09 -3.925542e-09 -2.568734e-09
-3.730485e-09 2.602727e-09 1.149004e-09
-3.230624e-09 -2.810619e-09 4.229406e-09
-5.978727e-09 2.602625e-09 1.340606e-09
1.109824e-08 4.645593e-09 -6.841975e-09
8.360417e-11 9.523084e-10 6.488145e-09
2.388690e-10 4.208745e-10 -2.232506e-09
4.707041e-10 1.681367e-09 3.971157e-09
-4.672761e-09 -1.932354e-09 5.071612e-09
-1.620232e-09 -2.465448e-09 4.577748e-09
-3.885831e-09 3.161272e-09 1.460373e-09
-2.213417e-09 -2.144226e-09 -3.655510e-09
1.329198e-08 6.624786e-09 -1.132764e-08
[...]
POINT_DATA 1605
VECTORS vector_force float
-3.042991e+01 -5.474821e+02 6.633337e+02 
5.497836e+02 -4.610120e+02 9.063502e+01 
-2.297193e+02 -3.962636e+02 -2.093857e+02 
-8.136851e+01 7.981630e+01 -1.914696e+02 
1.600191e+02 9.679318e+02 -1.534914e+02 
-1.164070e+02 -4.824422e+02 4.057255e+02 
1.249756e+03 -4.591531e+02 -1.249220e+01 
-3.739136e+02 1.153313e+02 -8.437566e+02 
-2.776460e+02 2.620636e+01 -1.367888e+00 
-4.826305e+02 4.091003e+02 6.341666e+02 
-2.686679e+02 -4.075890e+02 5.454850e+02 
-2.770174e+02 3.835025e+02 6.911128e+02 
4.464624e+02 2.550881e+02 3.160749e+02 
-2.739109e+00 1.646885e+02 4.430795e+01 
-1.619392e+02 -6.860414e+02 -2.629533e+02 
4.733972e+02 -5.366083e+01 -6.858747e+02 
-7.406049e+02 -2.947122e+02 -3.653372e+02 
3.565787e+02 3.161859e+01 7.630994e+02 
1.179639e+02 -4.934406e+01 3.330170e+02 
-7.770664e+02 4.601864e+01 -2.652746e+02 
7.191670e+02 5.826024e+02 9.805340e+02 
-3.152720e+02 4.009597e+02 4.359458e+02 
-4.166900e+00 -2.511360e+02 4.592750e+02 
4.687485e+02 -2.894400e+02 -9.259754e+02 
1.524422e+02 -5.460110e+02 1.704335e+02 
-2.609202e+02 -9.976045e+01 -6.928428e+02 
-2.417846e+01 1.706130e+03 1.225319e+03 
3.995450e+02 1.027926e+02 -7.164132e+01 
1.326057e+02 -2.808637e+02 1.419713e+02 
6.034612e+02 5.443823e+02 -1.214373e+01 
-3.521284e+02 -5.767170e+02 -3.532187e+02 
-1.070130e+02 -2.805529e+02 8.028850e+02 
-1.645887e+02 5.781328e+02 -2.192416e+02 
-5.342589e+02 -4.329059e+01 -3.367391e+02 
9.776324e+01 2.556539e+02 -2.214594e+02 
8.648491e+01 -1.619959e+02 1.617658e+02 
2.621264e+02 1.600107e+02 4.526315e+02 
4.705637e+02 -3.466434e+02 -3.396820e+02 
3.206751e+01 -2.598826e+02 -3.995166e+02 
3.565517e+01 -1.926466e+02 -2.215985e+00 
3.190206e+02 -3.289962e+02 -9.940540e+02 
-1.107816e+02 -3.406797e+02 -4.696561e+02 
-2.877786e+02 -9.940644e+01 1.969462e+02 
2.799572e+02 -9.674246e+02 -8.900425e+02 
-1.632659e+02 4.867833e+01 4.233950e+02 
-1.187697e+03 -1.633932e+02 -5.461060e+02 
-5.408099e+02 3.746981e+02 -4.652517e+02 
3.600938e+01 -3.995689e+02 -5.364906e+02 
1.615131e+02 -6.338635e+02 -2.160934e+02 
-1.786143e+02 4.368387e+02 -1.052550e+02 
7.212305e+02 -1.227937e+01 -3.006934e+02 
3.264664e+02 -3.554516e+02 -3.192677e+02 
-1.806398e+03 3.625245e+02 -7.118683e+02 
3.406169e+02 -8.201939e+02 -1.767942e+02 
-5.829411e+02 -8.842250e+02 -2.491997e+02 
3.124132e+02 2.646302e+02 -5.659116e+02 
-9.107592e+02 7.862523e+02 5.009502e+02 
-4.777711e+02 2.526774e+02 -8.654523e+02 
2.613351e+02 -2.558200e+02 2.926432e+02 
-1.324119e+03 5.986035e+02 4.078210e+02 
-3.020171e+02 -1.811763e+02 1.288878e+02 
7.011560e+01 1.488477e+02 3.511868e+02 
-3.196670e+02 -1.878126e+02 6.088917e+02 
7.436294e+01 -2.478746e+02 6.621028e+02 
2.190063e+02 2.568981e+02 -2.756695e+02 
5.418382e+02 2.733160e+02 -2.621058e+02 
4.286801e+02 -9.205644e+02 4.030050e+02 
-4.022619e+01 -8.120744e+02 3.992271e+02 
-7.943611e+01 -1.288041e+02 -3.958217e+02 
7.163931e+01 3.203580e+02 -5.441898e+02 
1.089184e+03 4.305765e+02 1.620340e+02 
3.726810e+01 -4.933177e+02 2.269766e+02 
-2.868584e+02 1.200165e+02 3.106118e+02 
-3.826975e+02 9.228756e+01 -6.187127e+01 
-4.645168e+02 3.750861e+02 -6.632030e+02 
2.757695e+02 -7.497715e+01 9.160725e+01 
2.904811e+02 -2.507166e+02 -1.558554e+02 
5.166525e+02 3.154633e+02 -5.853109e+02 
-4.581092e+01 2.143027e+02 -3.145575e+02 
-9.597136e+01 2.399643e+02 -2.043216e+02 
-1.266629e+02 -3.602676e+02 -7.866981e+01 
1.163579e+03 4.485844e+02 -4.710157e+01 
2.367258e+02 8.639404e+02 -1.521521e+03 
-1.623130e+02 3.460473e+02 5.234896e+02 
6.051189e+02 -5.877893e+02 -6.755247e+02 
-5.640926e+02 -6.130320e+02 -4.196709e+02 
-5.062528e+02 7.142121e+01 -1.676063e+02 
3.435053e+02 -4.274749e+02 9.199478e+01 
-1.049914e+03 5.560096e+02 -8.235830e+02 
3.537271e+02 5.604847e+02 -5.342277e+01 
-1.836661e+02 -6.155963e+02 -4.653004e+01 
-2.591586e+02 -6.218107e+01 -4.191251e+02 
-4.009936e+02 -4.943863e+01 -4.774053e+02 
-4.344759e+02 -3.941945e+02 -1.680547e+02 
-8.526855e+01 -5.244746e+02 -1.629698e+02 
-7.565992e+02 6.510144e+02 -1.037451e+03 
-7.026967e+02 -4.240131e+02 -6.769723e+01 
-1.313561e+02 -7.358304e+02 -8.144223e+02 
7.142638e+02 -2.788388e+02 -1.552359e+02 
1.446556e+02 -1.282956e+02 -1.007606e+03 
4.570522e+02 9.878942e+01 -7.178389e+02 
2.789551e+02 -2.941652e+02 -3.606665e+02 
1.619088e+02 2.258751e+02 -5.103024e+02 
1.202355e+03 5.552504e+02 -8.049923e+01 
-7.081556e+02 -7.853728e+02 6.115328e+02 
-1.603475e+02 -2.677673e+02 1.475368e+02 
-2.763136e+02 -4.605104e+02 -1.338808e+02 
-1.521134e+02 6.018604e+01 -1.124691e+02 
-2.388900e+02 1.519233e+02 3.944680e+02 
-7.997259e+02 3.634153e+02 3.367339e+02 
-4.664932e+02 -7.764912e+01 2.540454e+02 
-3.029440e+02 -8.529358e+02 4.137770e+02 
-2.196005e+02 -1.581083e+01 9.113165e+01 
-2.139894e+02 1.930482e+02 -4.303306e+02 
5.287830e+02 -7.896215e+01 -1.927687e+02 
3.581587e+02 -5.473522e+02 -5.329908e+02 
7.708630e+02 -9.035765e+02 -1.464951e+03 
-7.891361e+02 -2.530887e+02 -7.342437e+01 
-3.113498e+02 -8.444468e+02 -1.437122e+01 
-7.620718e+02 1.266403e+02 -2.867274e+02 
2.998840e+02 -4.030391e+02 -3.019756e+02 
-1.735348e+02 4.204002e+02 -4.443064e+02 
-5.886708e+02 -1.241488e+01 2.918337e+02 
-2.226309e+01 -1.617244e+02 1.561186e+01 
-4.839035e+01 2.764662e+02 5.219653e+02 
-9.475949e+02 7.727296e+02 1.177111e+02 
6.920244e+02 5.358681e+02 -4.850837e+02 
3.661592e+02 5.788104e+01 -1.869039e+02 
5.807638e+02 4.151313e+02 -3.672813e+02 
-9.289705e+01 5.842086e+01 -3.746804e+02 
-8.261496e+02 7.999073e+02 6.335705e+02 
-2.324718e+02 -1.947403e+02 -1.145980e+03 
2.146648e+02 8.360517e+01 3.166789e+02 
3.395211e+02 -3.324458e+02 -7.293520e+02 
-4.185368e+02 9.377308e+01 7.722860e+02 
-1.146015e+03 6.845134e+01 -3.065095e+01 
-6.926464e+02 5.580565e+02 -1.889683e+03 
-2.153486e+02 2.498231e+02 -1.710559e+02 
-9.791680e+02 -7.412459e+01 3.278819e+02 
8.976045e+01 -7.706725e+02 -4.677906e+02 
4.562061e+02 -4.220801e+02 -5.187212e+02 
-9.222526e+01 1.206389e+03 -1.203354e+03 
-5.289786e+01 -4.024958e+02 -8.369066e+02 
1.037638e+02 8.558975e+01 -4.908526e+02 
6.542594e+02 2.453760e+02 -1.710819e+02 
-4.062333e+02 1.376603e+02 -6.203233e+02 
-8.854178e+01 2.970076e+02 -8.201998e+02 
5.064292e+01 1.555262e+02 3.176468e+02 
-1.180888e+03 4.935261e+02 4.020200e+01 
-1.865338e+02 2.505300e+01 -6.504478e+02 
6.670902e+02 2.906739e+01 -8.066418e+02 
-4.778066e+02 2.730409e+02 -1.618332e+02 
2.231272e+02 2.158412e+02 -6.633963e+02 
-7.438228e+02 1.017365e+03 -7.593548e+02 
1.403234e+02 2.601076e+02 -1.071102e+03 
-6.591987e+02 -1.994665e+02 -6.457346e+02 
-5.917155e+02 -6.097180e+02 -6.827105e+02 
1.593151e+02 -3.399242e+02 7.564695e+00 
3.185718e+02 4.966026e+02 4.004434e+02 
-3.371491e+02 1.025626e+03 -7.328730e+02 
-5.724850e+01 4.484026e+02 -8.556637e+02 
-3.813086e+02 5.003405e+02 -3.790231e+02 
-6.390407e+02 -3.241260e+02 -1.611079e+02 
-5.958850e+02 -1.979881e+02 -3.095139e+02 
-3.561812e+02 -1.526510e+02 -8.515117e+02 
-9.759282e+02 -3.164855e+02 -1.379472e+03 
7.473068e+02 -4.066238e+02 -1.463071e+02 
-1.711551e+02 2.862580e+02 9.183071e+02 
-2.236014e+02 -7.881003e+02 -9.611227e+02 
6.040787e+01 -1.342191e+02 -9.395185e+01 
-2.049606e+02 -7.764652e+02 -1.670513e+02 
-9.924053e+01 8.767096e+02 -2.887593e+02 
4.024505e+02 -1.247522e+03 -2.619732e+02 
5.103101e+02 -1.006636e+03 -3.874912e+02 
-2.757719e+02 -6.906672e+02 3.636681e+02 
2.162328e+02 4.644318e+02 4.322799e+02 
2.095750e+01 6.473822e+02 -9.579833e+02 
2.752913e+02 6.864403e+02 -1.008625e+03 
-6.882183e+00 3.293563e+02 -2.934246e+02 
-6.575991e+02 4.714370e+02 -1.488862e+03 
-5.594873e+02 7.366748e+02 -1.666147e+01 
-2.304406e+02 8.065775e+01 -8.179506e+02 
8.386689e+02 -7.712025e+02 5.697156e+02 
3.863465e+02 1.365350e+03 6.920423e+02 
4.402848e+02 -9.560388e+02 -7.132213e+02 
-8.389224e+02 4.214783e+02 -4.378644e+02 
9.309739e+02 -1.179294e+03 1.229757e+03 
-1.854341e+02 2.830355e+02 6.601623e+02 
5.673901e+02 7.396343e+01 5.830597e+02 
-3.456485e+01 3.178173e+02 1.211691e+02 
-4.080311e+02 -5.030802e+02 -5.266036e+02 
3.301915e+02 -4.739463e+02 -2.272934e+02 
4.971392e+02 -1.028799e+02 -7.504731e+02 
9.505531e+02 -3.158148e+02 -7.164230e+02 
-6.114111e+01 -4.082884e+00 -1.172610e+03 
8.407588e+02 1.932534e+02 -6.193016e+02 
4.269424e+02 2.741228e+02 -2.746255e+02 
8.794192e+02 9.127161e+01 4.744111e+01 
6.760208e+02 1.104087e+03 -4.633954e+02 
5.148354e+02 3.636449e+02 2.413306e+00 
1.021030e+03 -2.252715e+02 8.577195e+01 
3.136305e+02 3.097469e+02 -1.778391e+03 
-1.685110e+02 -5.333545e+02 -9.166892e+02 
5.437759e+02 3.869438e+02 -6.724463e+02 
4.413387e+02 1.092365e+02 -1.454618e+02 
-3.652595e+02 3.573795e+02 1.642897e+02 
-3.720064e+02 3.789205e+02 8.501242e+01 
3.959632e+02 -3.331671e+02 9.499233e+02 
-3.362078e+02 2.631566e+02 -1.870162e+02 
-3.378358e+02 3.700237e+02 -7.327269e+02 
6.753416e+02 -4.665372e+02 7.982991e+02 
4.438780e+02 -5.064837e+02 7.844263e+02 
2.923959e+02 -3.814178e+02 5.234118e+01 
0.000000e+00 0.000000e+00 0.000000e+00 
0.000000e+00 0.000000e+00 0.000000e+00 
0.000000e+00 0.000000e+00 0.000000e+00 
0.000000e+00 0.000000e+00 0.000000e+00 
0.000000e+00 0.000000e+00 0.000000e+00 
0.000000e+00 0.000000e+00 0.000000e+00 
0.000000e+00 0.000000e+00 0.000000e+00 
0.000000e+00 0.000000e+00 0.000000e+00 
0.000000e+00 0.000000e+00 0.000000e+00 
0.000000e+00 0.000000e+00 0.000000e+00 
0.000000e+00 0.000000e+00 0.000000e+00 
0.000000e+00 0.000000e+00 0.000000e+00 
0.000000e+00 0.000000e+00 0.000000e+00 
0.000000e+00 0.000000e+00 0.000000e+00 
0.000000e+00 0.000000e+00 0.000000e+00 
0.000000e+00 0.000000e+00 0.000000e+00 
0.000000e+00 0.000000e+00 0.000000e+00 
0.000000e+00 0.000000e+00 0.000000e+00 
0.000000e+00 0.000000e+00 0.000000e+00 
0.000000e+00 0.000000e+00 0.000000e+00 
0.000000e+00 0.000000e+00 0.000000e+00 
0.000000e+00 0.000000e+00 0.000000e+00 
0.000000e+00 0.000000e+00 0.000000e+00 
0.000000e+00 0.000000e+00 0.000000e+00 
0.000000e+00 0.000000e+00 0.000000e+00 
0.000000e+00 0.000000e+00 0.000000e+00 
0.000000e+00 0.000000e+00 0.000000e+00 
0.000000e+00 0.000000e+00 0.000000e+00 
0.000000e+00 0.000000e+00 0.000000e+00 
0.000000e+00 0.000000e+00 0.000000e+00 
0.000000e+00 0.000000e+00 0.000000e+00 
0.000000e+00 0.000000e+00 0.000000e+00 
0.000000e+00 0.000000e+00 0.000000e+00 
0.000000e+00 0.000000e+00 0.000000e+00 
0.000000e+00 0.000000e+00 0.000000e+00 
0.000000e+00 0.000000e+00 0.000000e+00 
0.000000e+00 0.000000e+00 0.000000e+00 
0.000000e+00 0.000000e+00 0.000000e+00 
0.000000e+00 0.000000e+00 0.000000e+00 
0.000000e+00 0.000000e+00 0.000000e+00 
0.000000e+00 0.000000e+00 0.000000e+00 
0.000000e+00 0.000000e+00 0.000000e+00 
0.000000e+00 0.000000e+00 0.000000e+00 
0.000000e+00 0.000000e+00 0.000000e+00 
0.000000e+00 0.000000e+00 0.000000e+00 
0.000000e+00 0.000000e+00 0.000000e+00 
0.000000e+00 0.000000e+00 0.000000e+00 
0.000000e+00 0.000000e+00 0.000000e+00 
0.000000e+00 0.000000e+00 0.000000e+00 
0.000000e+00 0.000000e+00 0.000000e+00 
0.000000e+00 0.000000e+00 0.000000e+00 
0.000000e+00 0.000000e+00 0.000000e+00 
0.000000e+00 0.000000e+00 0.000000e+00 
0.000000e+00 0.000000e+00 0.000000e+00 
0.000000e+00 0.000000e+00 0.000000e+00 
0.000000e+00 0.000000e+00 0.000000e+00 
0.000000e+00 0.000000e+00 0.000000e+00 
0.000000e+00 0.000000e+00 0.000000e+00 
0.000000e+00 0.000000e+00 0.000000e+00 
0.000000e+00 0.000000e+00 0.000000e+00 
0.000000e+00 0.000000e+00 0.000000e+00 
0.000000e+00 0.000000e+00 0.000000e+00 
0.000000e+00 0.000000e+00 0.000000e+00 
0.000000e+00 0.000000e+00 0.000000e+00 
0.000000e+00 0.000000e+00 0.000000e+00 
0.000000e+00 0.000000e+00 0.000000e+00 
0.000000e+00 0.000000e+00 0.000000e+00 
0.000000e+00 0.000000e+00 0.000000e+00 
0.000000e+00 0.000000e+00 0.000000e+00 
0.000000e+00 0.000000e+00 0.000000e+00 
0.000000e+00 0.000000e+00 0.000000e+00 
0.000000e+00 0.000000e+00 0.000000e+00 
0.000000e+00 0.000000e+00 0.000000e+00 
0.000000e+00 0.000000e+00 0.000000e+00 
0.000000e+00 0.000000e+00 0.000000e+00 
0.000000e+00 0.000000e+00 0.000000e+00 
0.000000e+00 0.000000e+00 0.000000e+00 
0.000000e+00 0.000000e+00 0.000000e+00 
0.000000e+00 0.000000e+00 0.000000e+00 
0.000000e+00 0.000000e+00 0.000000e+00 
0.000000e+00 0.000000e+00 0.000000e+00 
0.000000e+00 0.000000e+00 0.000000e+00 
0.000000e+00 0.000000e+00 0.000000e+00 
0.000000e+00 0.000000e+00 0.000000e+00 
0.000000e+00 0.000000e+00 0.000000e+00 
0.000000e+00 0.000000e+00 0.000000e+00 
0.000000e+00 0.000000e+00 0.000000e+00 
0.000000e+00 0.000000e+00 0.000000e+00 
0.000000e+00 0.000000e+00 0.000000e+00 
0.000000e+00 0.000000e+00 0.000000e+00 
0.000000e+00 0.000000e+00 0.000000e+00 
0.000000e+00 0.000000e+00 0.000000e+00 
0.000000e+00 0.000000e+00 0.000000e+00 
0.000000e+00 0.000000e+00 0.000000e+00 
0.000000e+00 0.000000e+00 0.000000e+00 
0.000000e+00 0.000000e+00 0.000000e+00 
0.000000e+00 0.000000e+00 0.000000e+00 
0.000000e+00 0.000000e+00 0.000000e+00 
0.000000e+00 0.000000e+00 0.000000e+00 
0.000000e+00 0.000000e+00 0.000000e+00 
0.000000e+00 0.000000e+00 0.000000e+00 
0.000000e+00 0.000000e+00 0.000000e+00 
0.000000e+00 0.000000e+00 0.000000e+00 
0.000000e+00 0.000000e+00 0.000000e+00 
0.000000e+00 0.000000e+00 0.000000e+00 
0.000000e+00 0.000000e+00 0.000000e+00 
0.000000e+00 0.000000e+00 0.000000e+00 
0.000000e+00 0.000000e+00 0.000000e+00 
0.000000e+00 0.000000e+00 0.000000e+00 
0.000000e+00 0.000000e+00 0.000000e+00 
0.000000e+00 0.000000e+00 0.000000e+00 
0.000000e+00 0.000000e+00 0.000000e+00 
0.000000e+00 0.000000e+00 0.000000e+00 
0.000000e+00 0.000000e+00 0.000000e+00 
0.000000e+00 0.000000e+00 0.000000e+00 
0.000000e+00 0.000000e+00 0.000000e+00 
0.000000e+00 0.000000e+00 0.000000e+00 
0.000000e+00 0.000000e+00 0.000000e+00 
0.000000e+00 0.000000e+00 0.000000e+00 
0.000000e+00 0.000000e+00 0.000000e+00 
0.000000e+00 0.000000e+00 0.000000e+00 
0.000000e+00 0.000000e+00 0.000000e+00 
0.000000e+00 0.000000e+00 0.000000e+00 
0.000000e+00 0.000000e+00 0.000000e+00 
0.000000e+00 0.000000e+00 0.000000e+00 
0.000000e+00 0.000000e+00 0.000000e+00 
0.000000e+00 0.000000e+00 0.000000e+00 
0.000000e+00 0.000000e+00 0.000000e+00 
0.000000e+00 0.000000e+00 0.000000e+00 
0.000000e+00 0.000000e+00 0.000000e+00 
0.000000e+00 0.000000e+00 0.000000e+00 
0.000000e+00 0.000000e+00 0.000000e+00 
0.000000e+00 0.000000e+00 0.000000e+00 
0.000000e+00 0.000000e+00 0.000000e+00 
0.000000e+00 0.000000e+00 0.000000e+00 
0.000000e+00 0.000000e+00 0.000000e+00 
0.000000e+00 0.000000e+00 0.000000e+00 
0.000000e+00 0.000000e+00 0.000000e+00 
0.000000e+00 0.000000e+00 0.000000e+00 
0.000000e+00 0.000000e+00 0.000000e+00 
0.000000e+00 0.000000e+00 0.000000e+00 
0.000000e+00 0.000000e+00 0.000000e+00 
0.000000e+00 0.000000e+00 0.000000e+00 
0.000000e+00 0.000000e+00 0.000000e+00 
0.000000e+00 0.000000e+00 0.000000e+00 
0.000000e+00 0.000000e+00 0.000000e+00 
0.000000e+00 0.000000e+00 0.000000e+00 
0.000000e+00 0.000000e+00 0.000000e+00 
0.000000e+00 0.000000e+00 0.000000e+00 
0.000000e+00 0.000000e+00 0.000000e+00 
0.000000e+00 0.000000e+00 0.000000e+00 
0.000000e+00 0.000000e+00 0.000000e+00 
0.000000e+00 0.000000e+00 0.000000e+00 
0.000000e+00 0.000000e+00 0.000000e+00 
0.000000e+00 0.000000e+00 0.000000e+00 
0.000000e+00 0.000000e+00 0.000000e+00 
0.000000e+00 0.000000e+00 0.000000e+00 
0.000000e+00 0.000000e+00 0.000000e+00 
0.000000e+00 0.000000e+00 0.000000e+00 
0.000000e+00 0.000000e+00 0.000000e+00 
0.000000e+00 0.000000e+00 0.000000e+00 
0.000000e+00 0.000000e+00 0.000000e+00 
0.000000e+00 0.000000e+00 0.000000e+00 
0.000000e+00 0.000000e+00 0.000000e+00 
0.000000e+00 0.000000e+00 0.000000e+00 
0.000000e+00 0.000000e+00 0.000000e+00 
0.000000e+00 0.000000e+00 0.000000e+00 
0.000000e+00 0.000000e+00 0.000000e+00 
0.000000e+00 0.000000e+00 0.000000e+00 
0.000000e+00 0.000000e+00 0.000000e+00 
0.000000e+00 0.000000e+00 0.000000e+00 
0.000000e+00 0.000000e+00 0.000000e+00 
0.000000e+00 0.000000e+00 0.000000e+00 
0.000000e+00 0.000000e+00 0.000000e+00 
0.000000e+00 0.000000e+00 0.000000e+00 
0.000000e+00 0.000000e+00 0.000000e+00 
0.000000e+00 0.000000e+00 0.000000e+00 
0.000000e+00 0.000000e+00 0.000000e+00 
0.000000e+00 0.000000e+00 0.000000e+00 
0.000000e+00 0.000000e+00 0.000000e+00 
0.000000e+00 0.000000e+00 0.000000e+00 
0.000000e+00 0.000000e+00 0.000000e+00 
0.000000e+00 0.000000e+00 0.000000e+00 
0.000000e+00 0.000000e+00 0.000000e+00 
0.000000e+00 0.000000e+00 0.000000e+00 
0.000000e+00 0.000000e+00 0.000000e+00 
0.000000e+00 0.000000e+00 0.000000e+00 
0.000000e+00 0.000000e+00 0.000000e+00 
0.000000e+00 0.000000e+00 0.000000e+00 
0.000000e+00 0.000000e+00 0.000000e+00 
0.000000e+00 0.000000e+00 0.000000e+00 
0.000000e+00 0.000000e+00 0.000000e+00 
0.000000e+00 0.000000e+00 0.000000e+00 
0.000000e+00 0.000000e+00 0.000000e+00 
0.000000e+00 0.000000e+00 0.000000e+00 
0.000000e+00 0.000000e+00 0.000000e+00 
0.000000e+00 0.000000e+00 0.000000e+00 
0.000000e+00 0.000000e+00 0.000000e+00 
0.000000e+00 0.000000e+00 0.000000e+00 
0.000000e+00 0.000000e+00 0.000000e+00 
0.000000e+00 0.000000e+00 0.000000e+00 
0.000000e+00 0.000000e+00 0.000000e+00 
0.000000e+00 0.000000e+00 0.000000e+00 
0.000000e+00 0.000000e+00 0.000000e+00 
0.000000e+00 0.000000e+00 0.000000e+00 
0.000000e+00 0.000000e+00 0.000000e+00 
0.000000e+00 0.000000e+00 0.000000e+00 
0.000000e+00 0.000000e+00 0.000000e+00 
0.000000e+00 0.000000e+00 0.000000e+00 
0.000000e+00 0.000000e+00 0.000000e+00 
0.000000e+00 0.000000e+00 0.000000e+00 
0.000000e+00 0.000000e+00 0.000000e+00 
0.000000e+00 0.000000e+00 0.000000e+00 
0.000000e+00 0.000000e+00 0.000000e+00 
0.000000e+00 0.000000e+00 0.000000e+00 
0.000000e+00 0.000000e+00 0.000000e+00 
0.000000e+00 0.000000e+00 0.000000e+00 
0.000000e+00 0.000000e+00 0.000000e+00 
0.000000e+00 0.000000e+00 0.000000e+00 
0.000000e+00 0.000000e+00 0.000000e+00 
0.000000e+00 0.000000e+00 0.000000e+00 
0.000000e+00 0.000000e+00 0.000000e+00 
0.000000e+00 0.000000e+00 0.000000e+00 
0.000000e+00 0.000000e+00 0.000000e+00 
0.000000e+00 0.000000e+00 0.000000e+00 
0.000000e+00 0.000000e+00 0.000000e+00 
0.000000e+00 0.000000e+00 0.000000e+00 
0.000000e+00 0.000000e+00 0.000000e+00 
0.000000e+00 0.000000e+00 0.000000e+00 
0.000000e+00 0.000000e+00 0.000000e+00 
0.000000e+00 0.000000e+00 0.000000e+00 
0.000000e+00 0.000000e+00 0.000000e+00 
0.000000e+00 0.000000e+00 0.000000e+00 
0.000000e+00 0.000000e+00 0.000000e+00 
0.000000e+00 0.000000e+00 0.000000e+00 
0.000000e+00 0.000000e+00 0.000000e+00 
0.000000e+00 0.000000e+00 0.000000e+00 
0.000000e+00 0.000000e+00 0.000000e+00 
0.000000e+00 0.000000e+00 0.000000e+00 
0.000000e+00 0.000000e+00 0.000000e+00 
0.000000e+00 0.000000e+00 0.000000e+00 
0.000000e+00 0.000000e+00 0.000000e+00 
0.000000e+00 0.000000e+00 0.000000e+00 
0.000000e+00 0.000000e+00 0.000000e+00 
0.000000e+00 0.000000e+00 0.000000e+00 
0.000000e+00 0.000000e+00 0.000000e+00 
0.000000e+00 0.000000e+00 0.000000e+00 
0.000000e+00 0.000000e+00 0.000000e+00 
0.000000e+00 0.000000e+00 0.000000e+00 
0.000000e+00 0.000000e+00 0.000000e+00 
0.000000e+00 0.000000e+00 0.000000e+00 
0.000000e+00 0.000000e+00 0.000000e+00 
0.000000e+00 0.000000e+00 0.000000e+00 
0.000000e+00 0.000000e+00 0.000000e+00 
0.000000e+00 0.000000e+00 0.000000e+00 
0.000000e+00 0.000000e+00 0.000000e+00 
0.000000e+00 0.000000e+00 0.000000e+00 
0.000000e+00 0.000000e+00 0.000000e+00 
0.000000e+00 0.000000e+00 0.000000e+00 
0.000000e+00 0.000000e+00 0.000000e+00 
0.000000e+00 0.000000e+00 0.000000e+00 
0.000000e+00 0.000000e+00 0.000000e+00 
0.000000e+00 0.000000e+00 0.000000e+00 
0.000000e+00 0.000000e+00 0.000000e+00 
0.000000e+00 0.000000e+00 0.000000e+00 
0.000000e+00 0.000000e+00 0.000000e+00 
0.000000e+00 0.000000e+00 0.000000e+00 
0.000000e+00 0.000000e+00 0.000000e+00 
0.000000e+00 0.000000e+00 0.000000e+00 
0.000000e+00 0.000000e+00 0.000000e+00 
0.000000e+00 0.000000e+00 0.000000e+00 
0.000000e+00 0.000000e+00 0.000000e+00 
0.000000e+00 0.000000e+00 0.000000e+00 
0.000000e+00 0.000000e+00 0.000000e+00 
0.000000e+00 0.000000e+00 0.000000e+00 
0.000000e+00 0.000000e+00 0.000000e+00 