# vtk DataFile Version 3.1
*description-name of input file* step:1501 
ASCII
DATASET UNSTRUCTURED_GRID
POINTS 1605 FLOAT
-7.154086e-09 -5.619336e-09 -3.318122e-10
-7.744727e-09 -4.396552e-09 -5.125293e-10
-6.346330e-09 -4.864059e-09 -7.901072e-10
-7.761517e-09 -4.038398e-09 1.857245e-09
-5.587445e-09 -6.009254e-09 -1.174460e-10
1.213171e-08 6.964078e-09 -1.077940e-08
1.367137e-08 7.243161e-09 -1.090426e-08
1.293352e-08 5.931303e-09 -1.207314e-08
-6.224089e-09 -6.147891e-09 8.285723e-10
-6.329941e-09 -2.868426e-09 8.502753e-10
-4.374424e-09 -4.638192e-09 -1.067992e-09
-6.264589e-09 -2.822192e-09 -3.687205e-10
-5.740237e-09 -5.426521e-09 2.298178e-09
-5.935001e-09 -3.745786e-09 1.838803e-09
-5.093730e-09 -3.580696e-09 -1.558058e-09
-7.595412e-09 -4.371071e-09 3.193290e-09
-3.529402e-09 -5.361135e-09 2.052613e-10
-6.471011e-09 -1.161163e-09 1.514193e-10
-5.423414e-09 -1.412464e-09 -1.006109e-09
-3.876459e-09 -4.035597e-09 -3.369652e-09
-5.012544e-09 -2.864023e-09 -2.990374e-09
-4.144319e-09 -2.039276e-09 -3.907773e-09
-6.444432e-09 -2.549084e-09 2.356426e-09
-5.838877e-09 1.604210e-10 -2.372986e-09
-6.091853e-09 3.151204e-10 -7.881046e-10
-3.719553e-09 -4.672617e-09 1.973188e-09
-7.111539e-09 -1.453526e-09 1.205256e-09
-5.888741e-09 -3.478148e-09 4.161111e-09
-4.115762e-09 -2.044327e-09 -2.890937e-10
-7.881071e-09 -2.269148e-09 3.261240e-09
-2.482128e-09 -4.405524e-09 -2.184836e-09
-2.753790e-09 -3.182229e-09 -3.831068e-09
-2.245106e-09 -4.065963e-09 -3.225567e-09
-3.554762e-09 -3.458798e-09 -5.745187e-10
-5.958768e-09 -2.575980e-09 4.253932e-09
-4.137804e-09 -9.530158e-10 -2.319392e-09
-6.124449e-09 -6.856929e-10 2.126143e-09
-4.706723e-09 -3.131173e-10 5.033444e-10
-3.005989e-09 -1.953171e-09 -2.056496e-09
-3.903696e-09 -4.079080e-09 3.725543e-09
-4.703215e-09 8.482395e-11 -6.912921e-10
-3.813816e-09 5.276909e-10 -5.208883e-09
-3.930703e-09 4.551208e-10 -2.860412e-09
-4.731035e-09 8.921160e-10 -4.020439e-09
-4.237297e-09 -2.525603e-09 2.198546e-09
-1.879312e-09 -3.258104e-09 -6.264391e-10
-4.439615e-09 2.274592e-09 -4.296072e-09
-2.823020e-09 -1.468523e-09 -3.302646e-09
-3.132768e-09 5.988560e-11 -2.726090e-09
-1.507499e-09 -1.792753e-09 -3.299703e-09
-3.220508e-09 3.457895e-10 -7.222633e-10
-3.074624e-09 -1.970326e-09 1.669191e-10
-3.338031e-09 -4.287811e-11 -4.679682e-09
-1.811343e-09 -2.425951e-09 -1.817535e-09
-3.861678e-09 -4.094403e-10 8.251904e-09
-2.272703e-09 -1.495637e-09 7.550401e-09
-1.754168e-09 3.095119e-10 7.346301e-09
-1.593129e-09 4.199663e-10 -4.048587e-09
-5.822393e-09 -3.250820e-09 5.973350e-09
-4.280220e-09 2.377361e-09 -2.535844e-09
-3.605364e-09 -2.833994e-09 3.679342e-09
-4.522931e-09 -2.516038e-10 2.529593e-09
-3.914652e-09 -1.393202e-09 1.371649e-09
-5.481259e-09 2.379996e-09 -2.950424e-10
-4.668354e-09 6.730277e-10 1.224637e-09
-6.573587e-09 1.846016e-09 1.806767e-09
-4.717470e-09 -4.676005e-09 5.548776e-09
-4.703585e-09 -3.816098e-09 6.832230e-09
-6.142194e-09 -1.655482e-09 6.768436e-09
-2.047095e-09 1.841534e-09 2.006634e-09
-5.740682e-11 2.384007e-09 3.668651e-09
-9.393287e-10 1.749163e-09 6.855074e-10
-4.637803e-09 7.943004e-10 -1.034169e-09
-3.086611e-09 -4.518951e-09 5.410682e-09
9.952470e-10 3.704845e-10 3.679856e-09
8.182152e-10 1.264462e-09 4.331617e-09
2.674591e-11 8.144249e-10 5.554683e-09
-5.530874e-09 3.291812e-09 1.176527e-09
-4.880579e-09 -1.633479e-09 5.416569e-09
-1.100619e-09 -1.082482e-10 -1.308996e-09
-4.547362e-09 -2.317685e-09 4.635488e-09
-3.470142e-09 8.987978e-11 8.033635e-10
-2.215405e-09 -4.973778e-10 5.446114e-11
-5.947192e-09 2.520671e-09 3.778852e-09
-2.381594e-09 -5.134570e-09 3.757557e-09
-3.186525e-09 2.691823e-09 -3.817367e-09
-2.294907e-09 -4.016388e-09 2.597772e-09
-5.704647e-09 -4.533503e-10 5.543282e-09
-2.688370e-09 1.685274e-09 -2.386233e-09
-4.210585e-09 -1.804977e-11 4.913389e-09
-2.884086e-09 -2.899530e-09 4.988155e-09
-5.793130e-09 -6.976434e-10 4.164506e-09
-3.426628e-09 -1.088470e-09 4.291295e-09
-5.019479e-10 -1.640253e-09 1.475719e-11
-4.410809e-09 3.395378e-09 2.355996e-09
-3.404496e-09 2.977744e-09 -9.364233e-10
-3.020183e-10 -1.513537e-09 -3.331637e-09
4.278855e-10 -2.798434e-09 -2.648086e-09
-4.067661e-09 -2.432403e-09 7.830701e-09
-5.335618e-09 -1.442988e-09 7.705469e-09
-5.410596e-09 3.732465e-10 7.783751e-09
9.324252e-10 2.226038e-09 3.201954e-09
-3.354709e-09 1.381619e-09 9.313421e-10
-3.739559e-09 2.937751e-09 3.935097e-10
-6.526227e-09 1.323231e-09 4.776708e-09
-4.424238e-09 -1.016946e-10 3.646695e-09
-3.685372e-09 -2.542830e-09 6.277507e-09
-1.160527e-10 -1.020428e-11 -3.245702e-09
-1.390600e-09 -2.888397e-09 3.687504e-09
-5.151992e-09 1.348785e-09 6.785670e-09
-3.604561e-09 8.544262e-10 3.371126e-09
-4.149719e-09 2.196361e-09 5.395665e-09
-4.292510e-09 1.883102e-09 3.062991e-09
-3.008976e-10 -3.946925e-09 2.689130e-09
8.058007e-10 -3.623117e-09 4.343770e-09
-4.068755e-09 2.263722e-09 1.882946e-09
5.372604e-10 -1.966201e-09 -4.710834e-10
-4.198073e-09 2.767292e-09 4.135604e-09
1.524533e-09 -9.593189e-10 -3.120964e-09
-7.671311e-10 -3.908197e-09 6.198387e-09
-8.070312e-10 -6.532140e-10 1.206097e-09
-2.321468e-09 -3.341974e-09 6.557765e-09
-1.949077e-09 -2.278892e-09 5.559300e-09
-1.586651e-09 -2.950404e-10 2.816505e-09
-1.435271e-09 -1.722682e-09 4.314692e-09
-2.732536e-09 1.410342e-09 3.705878e-09
1.681379e-09 -8.912200e-10 -1.208714e-09
6.127698e-10 8.696300e-10 -1.373054e-09
1.446355e-09 -6.267334e-10 5.912623e-09
-3.189101e-09 1.211641e-09 6.071968e-09
1.047532e-09 6.353087e-10 -3.266832e-09
9.275232e-10 -4.625761e-09 3.080799e-09
-7.428916e-10 -6.395285e-10 4.021242e-09
9.632894e-10 -1.053797e-09 -6.039271e-11
7.184411e-10 -3.544455e-09 5.423451e-09
-3.053294e-09 8.391312e-10 7.459967e-09
-2.342817e-09 2.266018e-09 5.748057e-09
-1.210730e-09 -1.968845e-09 6.609283e-09
2.275648e-09 -4.522277e-09 3.723960e-09
1.897133e-09 -3.872150e-09 2.403744e-09
-2.364018e-10 -1.609309e-09 2.785593e-09
-3.155921e-10 -2.652722e-09 7.128798e-09
1.348358e-09 -1.645547e-09 1.694402e-09
1.971744e-09 -2.589410e-11 -2.169575e-09
-9.206525e-10 1.672934e-09 3.521129e-09
-8.457894e-10 -1.395990e-09 8.011161e-09
1.791163e-09 5.499375e-10 -2.821018e-11
2.597423e-09 -3.288812e-09 4.707191e-09
2.963215e-09 -3.925548e-09 3.449443e-09
1.866938e-09 1.571641e-09 -1.224572e-09
5.237589e-10 -2.316864e-09 6.200807e-09
-1.643268e-09 7.323264e-10 5.130049e-09
2.809682e-09 -2.312264e-10 8.927116e-10
2.681710e-09 4.030743e-10 -3.963666e-09
1.759603e-09 -2.641762e-09 4.865540e-09
3.475583e-09 -2.816486e-09 2.380880e-09
3.385131e-09 6.998798e-10 -2.174018e-09
2.604575e-09 2.460381e-09 -2.700825e-09
2.681707e-09 2.226761e-09 -4.162241e-09
3.544844e-09 9.563492e-10 -3.904322e-09
4.264849e-09 1.372622e-09 -5.326204e-09
1.238995e-09 -1.425042e-09 4.254512e-09
5.971901e-10 -8.454732e-10 7.301977e-09
2.488828e-09 -7.662842e-10 2.035406e-09
1.311677e-09 1.539189e-09 6.799228e-10
2.079540e-09 1.640537e-09 -1.351240e-10
4.589748e-09 1.710154e-09 -3.550043e-09
2.877914e-10 1.407517e-09 7.546650e-09
1.479417e-09 1.205462e-09 2.031898e-09
2.937384e-09 -2.339125e-09 3.427467e-09
2.051391e-09 -1.819665e-10 3.409394e-09
3.516429e-09 -2.312079e-10 2.045911e-09
4.436049e-09 2.925622e-09 -3.598107e-09
3.188529e-09 1.016038e-09 -8.549041e-10
3.364939e-09 1.612186e-09 -1.862151e-09
4.865948e-09 2.583029e-09 -5.136496e-09
3.426552e-09 1.024743e-09 8.639653e-10
5.191774e-09 1.986914e-09 -6.080446e-09
5.453403e-09 1.495785e-09 -4.690909e-09
3.759116e-09 1.582077e-11 -1.391888e-10
3.139215e-09 8.575378e-10 2.721519e-09
6.551147e-09 1.504853e-09 -5.813153e-09
5.796844e-09 2.687066e-09 -4.036921e-09
7.338173e-09 3.083228e-09 -6.837531e-09
6.678626e-09 2.098958e-09 -5.138230e-09
7.444232e-09 2.205233e-09 -6.444719e-09
6.219109e-09 3.550816e-09 -4.834512e-09
7.543635e-09 3.484210e-09 -5.556101e-09
8.711121e-09 2.993628e-09 -5.869278e-09
8.438872e-09 2.785086e-09 -7.028063e-09
8.507346e-09 4.235726e-09 -6.788013e-09
9.427163e-09 3.148485e-09 -6.604852e-09
1.032759e-08 4.389052e-09 -7.797383e-09
1.017899e-08 5.008576e-09 -7.849156e-09
9.493863e-09 4.004556e-09 -5.980925e-09
1.108209e-08 4.311773e-09 -6.863359e-09
1.014785e-08 4.913665e-09 -6.091904e-09
1.131808e-08 5.021454e-09 -8.646305e-09
1.131843e-08 6.426790e-09 -7.551889e-09
1.115392e-08 5.265875e-09 -6.591645e-09
1.279733e-08 4.866474e-09 -8.210715e-09
1.140602e-08 6.574458e-09 -1.016425e-08
1.167087e-08 5.823729e-09 -1.024700e-08
1.128410e-08 6.168176e-09 -9.006680e-09
1.222996e-08 5.052686e-09 -9.035077e-09
1.165392e-08 5.740287e-09 -7.074035e-09
1.295153e-08 5.541372e-09 -7.967299e-09
1.339427e-08 5.075379e-09 -9.131063e-09
1.394479e-08 5.385805e-09 -1.065080e-08
1.178375e-08 6.990753e-09 -8.767769e-09
1.429092e-08 6.672003e-09 -1.020524e-08
1.386417e-08 6.205850e-09 -8.851300e-09
1.358843e-08 7.742279e-09 -9.140167e-09
1.973239e-09 1.606089e-09 -6.798480e-10
-4.385623e-09 -3.124251e-09 7.331466e-09
7.391203e-09 2.644231e-09 -6.641125e-09
7.440904e-09 3.283719e-09 -6.196816e-09
1.253262e-08 6.447690e-09 -1.142627e-08
2.369114e-09 1.281966e-09 7.719440e-10
-3.961862e-09 2.153067e-10 -7.067777e-10
8.127378e-09 3.238919e-09 -5.712690e-09
4.424908e-10 2.810218e-10 7.424313e-09
-2.439244e-10 3.806909e-10 -1.341025e-09
-3.069379e-09 -9.466427e-10 -2.391293e-09
7.888523e-09 2.934157e-09 -6.932797e-09
-4.505628e-09 1.634739e-09 -3.278142e-09
-5.620970e-09 1.259522e-09 1.515702e-09
-5.121866e-11 1.468698e-09 3.926373e-09
1.342675e-09 -1.025888e-09 5.083567e-09
1.025329e-08 4.698814e-09 -7.823269e-09
-4.485095e-09 -3.808147e-09 -2.463855e-09
-3.904157e-09 2.600736e-09 1.138228e-09
-3.244725e-09 -2.866762e-09 4.333748e-09
-6.052230e-09 2.568914e-09 1.491647e-09
1.111801e-08 4.788824e-09 -6.727502e-09
1.572687e-10 1.110971e-09 6.550667e-09
2.483586e-10 4.297128e-10 -2.309378e-09
3.804042e-10 1.824234e-09 4.000134e-09
-4.713971e-09 -1.975582e-09 5.026029e-09
-1.669839e-09 -2.583645e-09 4.623402e-09
-4.075184e-09 3.166564e-09 1.374753e-09
-2.130644e-09 -2.487491e-09 -3.565386e-09
1.330245e-08 6.587232e-09 -1.148870e-08
[...]
POINT_DATA 1605
VECTORS vector_force float
6.871186e+02 -4.591634e+02 3.374724e+02 
4.860459e+02 -1.005128e+03 1.751001e+02 
2.296563e+02 -2.528782e+02 -1.051292e+02 
1.185126e+03 9.047843e+01 -4.961667e+02 
5.028820e+02 -1.619343e+02 3.301844e+02 
-5.948243e+02 -8.351498e+02 -2.153242e+02 
-4.791519e+01 4.332111e+02 -4.741219e+02 
7.531584e+02 -4.237310e+02 1.218615e+03 
1.516131e+03 -2.364539e+01 -2.229138e+02 
-4.766225e+02 2.952746e+02 2.124774e+02 
3.324316e+02 7.911996e+01 2.265173e+02 
1.143160e+02 3.697265e+01 4.776834e+01 
-5.873708e+02 -2.500521e+02 -6.607082e+02 
-1.826520e+02 1.767642e+02 1.822058e+02 
2.763700e+02 -2.897312e+02 -5.045713e+02 
-6.079658e+02 3.264383e+00 3.573264e+02 
3.259755e+02 3.637839e+02 4.412437e+02 
5.436316e+02 3.866551e+02 6.932831e+02 
3.303745e+02 -4.538432e+01 7.875774e+02 
6.761273e+02 4.174851e+02 7.311668e+01 
-3.461816e+02 -8.186196e+02 -8.901245e+02 
-1.116274e+03 -6.719981e+02 -1.690471e+03 
-2.298857e+02 -4.277172e+02 1.665206e+01 
3.092976e+02 3.975323e+02 3.335165e+02 
-6.408718e+02 -5.797474e+02 6.673516e+02 
1.886612e+02 6.243650e+02 8.197868e+02 
-2.196796e+02 8.182600e+01 5.022273e+02 
4.706198e+02 -5.423050e+02 2.123430e+02 
-4.750485e+01 -2.797410e+02 5.501370e+02 
-2.229581e+02 2.811583e+01 -2.134686e+02 
6.666330e+02 2.090094e+02 -8.946505e+02 
9.921903e+02 -2.252294e+02 -4.829356e+02 
4.973485e+02 1.024832e+03 -1.328967e+02 
-1.468149e+02 4.683129e+02 1.741653e+02 
6.800065e+02 -5.093171e+02 1.601173e+02 
-5.364997e+02 -4.905110e+01 -2.735761e+02 
6.587526e+01 -6.427675e+02 -5.762390e+01 
7.841739e+02 7.224128e+02 4.190395e+01 
-4.513000e+02 4.706209e+02 -3.257478e+02 
1.620310e+02 -2.691238e+02 -5.283747e+02 
4.877569e+02 -6.683260e+02 3.989733e+02 
-3.627849e+02 9.706695e+01 6.613163e+02 
-9.787740e+01 2.073715e+02 1.110511e+03 
-1.683763e+02 3.145843e+02 1.677844e+03 
-1.351344e+02 2.281552e+02 3.743577e+02 
-1.121499e+02 4.647917e+02 -6.111440e+02 
-5.476698e+02 7.467956e+02 9.927477e+01 
-2.406973e+02 4.611668e+02 -2.018602e+02 
-1.150232e+02 7.038956e+01 7.388199e+02 
3.738836e-01 7.942420e+02 -6.852837e+01 
4.545412e+02 -6.073747e+02 3.230979e+02 
-8.270993e+01 3.443925e+02 8.309567e+01 
2.208205e+02 1.103769e+03 5.477338e+02 
-3.319504e+02 6.788094e+02 1.395258e+02 
-6.483252e+02 1.011213e+03 -3.574478e+02 
-3.591913e+02 7.150980e+02 -6.580489e-01 
-3.527315e+02 1.277363e+03 -2.644359e+02 
-8.436408e+02 7.736322e+01 -7.307543e+02 
-7.247326e+02 -5.589160e+02 2.945613e+02 
1.610497e+03 3.506154e+02 6.873896e+01 
-5.526443e+02 -2.713639e+02 -5.978646e+02 
1.124892e+02 -4.100500e+02 4.413194e+02 
-2.288179e+02 3.116493e+02 7.435099e+01 
2.168396e+02 3.143227e+02 4.062507e+02 
9.290355e+01 -1.015590e+02 -5.017239e+02 
7.457741e+02 -4.075535e+02 -6.317302e+02 
-4.889086e+02 -1.843997e+02 -7.217998e+01 
-9.531897e+02 -6.877240e+02 4.597950e+02 
-2.201936e+02 6.372824e+01 2.615120e+02 
-1.156440e+02 -3.606178e+02 -8.859606e+02 
-5.791519e+02 8.536934e+02 -5.948280e+02 
1.988522e+02 -4.379985e+02 3.745601e+02 
9.021152e+02 6.446306e+02 1.911438e+02 
7.391201e+02 -5.467911e+02 -9.028580e+01 
7.979847e+02 -1.812108e+02 4.360420e+01 
1.782930e+02 7.467225e+02 8.850732e+00 
5.392014e+02 -3.123546e-01 -2.573840e+02 
1.199739e+03 3.527863e+02 6.556812e+02 
1.833902e+01 -8.194389e+02 4.062843e+02 
-3.239950e+02 -3.668534e+01 -3.146509e+02 
9.578531e+01 -2.995492e+02 2.367480e+01 
-4.933877e+02 1.019219e+02 6.824651e+02 
-3.839829e+02 2.722234e+02 3.801648e+02 
1.274519e+02 4.311004e+02 -4.311389e+02 
9.771719e+02 -1.252462e+02 -4.954209e+02 
-2.880527e+02 2.171286e+02 7.987171e+02 
-1.204411e+02 1.379549e+02 -8.158198e+01 
-1.161757e+02 -3.374246e+02 -4.303586e+02 
6.603693e+02 2.760108e+02 2.939254e+02 
-2.217713e+02 -1.500946e+02 -2.755382e+02 
-1.103145e+02 -2.253989e+02 -5.393337e+00 
-4.741836e+02 -1.355942e+02 -6.792848e+02 
-5.158619e+01 -6.476456e+01 -5.026388e+01 
-1.622186e+01 -7.543137e+02 -2.230639e+02 
1.935468e+03 -3.437546e+02 1.262959e+03 
3.549215e+02 4.363416e+02 -3.733218e+02 
-6.865692e+02 2.438123e+02 -7.811538e+02 
-1.124009e+03 -2.419678e+02 -4.738846e+02 
-8.597452e+02 9.558050e+02 5.312946e+02 
-8.022310e+02 6.589585e+02 -3.461053e+02 
5.347127e+02 5.252789e+02 -3.756649e+02 
-3.880296e+02 1.493908e+03 1.060612e+02 
9.181435e+02 -3.012949e+02 -3.139222e+02 
-3.347697e+02 -6.901755e+02 -1.084830e+02 
1.235807e+02 5.353604e+02 -9.312124e+02 
6.533372e+02 -6.193004e+02 -1.292050e+02 
-2.328129e+02 3.568754e+02 6.629151e+02 
-1.013554e+02 3.789579e+01 -2.832444e+02 
-3.187023e+02 -5.380687e+02 3.158897e+02 
8.406197e+01 5.199971e-01 -2.568175e+02 
5.111037e+02 -7.994457e+02 -1.925322e+02 
1.242033e+02 -9.023739e+01 -3.016443e+02 
7.987673e+02 -2.218149e+02 -3.980502e+02 
-3.977618e+02 -4.290786e+02 -2.322583e+02 
-5.327214e+02 4.448313e+02 -4.042300e+02 
7.264877e+02 -7.362344e+02 1.099528e+02 
4.015028e+02 4.445358e+02 -6.080477e+02 
5.289757e+02 1.305462e+03 -1.517451e+02 
-1.004064e+03 -4.285076e+02 -7.484700e+02 
-2.042697e+01 2.924216e+02 9.612393e+01 
3.049843e+02 -2.007054e+02 5.171366e+02 
2.438765e+02 5.568514e+02 5.138249e+02 
-4.675321e+02 6.520105e+02 6.465657e+01 
-1.763539e+01 -2.814255e+02 -3.503659e+02 
4.816661e+02 -3.395079e+02 -3.152639e+01 
1.970367e+02 -9.680048e+01 7.066686e+01 
1.197806e+02 -4.361580e+02 -3.561756e+02 
4.375650e+02 -2.884477e+01 -5.445438e+02 
4.348981e+02 -6.801944e+02 5.423837e+02 
-4.745107e+02 9.989402e+01 -7.475024e+02 
-2.409614e+02 -1.033743e+03 6.141291e+02 
-6.118223e+02 -1.294689e+03 -6.494883e+02 
3.317470e+02 1.099402e+02 -3.823041e+02 
-3.517889e+02 2.347848e+02 1.816858e+02 
-1.233784e+02 -3.608285e+02 -3.022898e+02 
-8.199391e+00 1.522241e+03 2.290414e+02 
1.081376e+03 -1.387859e+02 -5.969733e+02 
2.398046e+02 4.004596e+02 9.925746e+02 
2.279952e+02 2.832587e+01 9.001171e+00 
-8.060162e+02 -2.811359e+02 1.582216e+02 
4.739068e+01 -4.714259e+01 -4.096887e+01 
1.106538e+03 -6.247449e+02 1.024399e+03 
-5.921782e+02 1.032899e+02 1.710821e+02 
4.434464e+02 -1.376122e+03 2.575940e+02 
2.996605e+02 -5.767892e+01 -6.633095e+02 
-5.698220e+02 5.010270e+02 8.370616e+02 
-2.611817e+02 1.973242e+02 8.946461e+01 
8.938392e+02 -1.913151e+02 -3.256033e+02 
-6.787513e+01 5.565647e+02 -4.726600e+02 
6.258435e+02 -8.622121e+01 -7.004312e+02 
7.799145e+02 -4.978148e+02 4.264655e+02 
4.743471e+02 -1.622084e+02 -1.385177e+02 
6.380725e+01 3.107050e+02 2.316797e+02 
2.101205e+02 -6.699351e+02 -2.693175e+02 
1.574901e+02 -4.519253e+02 1.331971e+02 
-5.636624e+02 -7.518204e+02 -9.077765e+02 
-5.002264e+02 -1.140583e+03 -1.199127e+02 
1.460195e+02 -4.093261e+02 3.496679e+02 
-4.364239e+02 -1.796814e+02 1.705234e+02 
-1.489753e+02 8.093166e+01 2.695770e+01 
-4.966331e+01 1.506782e+02 -6.038149e+02 
3.100264e+02 6.584843e+01 -1.500407e+02 
-1.377012e+02 7.663919e+02 6.858193e+02 
-4.285866e+01 -9.843385e+01 -9.291411e+02 
1.551172e+02 2.267197e+02 1.395227e+02 
-9.638359e+02 -2.968597e+02 -4.347222e+02 
6.303468e+01 1.836323e+01 -4.317636e+02 
1.730311e+03 4.764281e+02 -1.422940e+02 
1.859806e+01 3.452556e+02 -4.192556e+02 
5.189201e+02 -4.886085e+02 -5.443323e+02 
5.233035e+02 1.187076e+02 -7.402520e+01 
-9.361774e+02 -5.642353e+02 -8.398150e+00 
-8.097064e+02 3.577716e+02 5.717608e+02 
-8.034897e+02 2.659259e+02 -9.020648e+01 
-2.146800e+01 -3.881614e+02 1.721024e+02 
-3.121506e+02 9.021401e+02 -5.632046e+02 
5.708546e+02 5.267032e+02 4.931150e+02 
8.901113e+02 3.191450e+02 5.106753e+02 
-2.179923e+02 3.003041e+02 -1.902722e+02 
-3.361497e+02 5.704032e+02 -3.265530e+02 
-8.539295e+01 8.387223e+02 -3.923477e+02 
-3.186806e+02 2.352718e+02 -1.346910e+01 
-1.461251e+02 -1.284028e+03 1.017442e+01 
-3.714784e+02 6.734155e+02 -5.625983e+02 
-7.218146e+02 5.702779e+02 -4.970787e+02 
-2.687839e+02 -6.676886e+01 5.322985e+02 
-3.604202e+02 1.064754e+03 -3.548576e+02 
4.745467e+02 7.739038e+02 -3.427273e+02 
-4.566096e+02 -2.621816e+02 -7.364420e+02 
2.637630e+02 -3.166205e+02 5.387149e+02 
-1.067494e+02 -8.602759e+02 4.121166e+02 
1.130202e+03 6.692474e+00 -7.429538e+02 
7.269893e+02 -7.161773e+02 -5.342217e+02 
-2.631895e+02 -4.048232e+02 -7.890662e+02 
3.960649e+02 3.397283e+02 2.745528e+02 
-4.466435e+02 2.340826e+02 -4.555582e+02 
-1.841403e+02 4.268417e+02 -3.221169e+02 
1.585748e+02 -3.103084e+02 -4.126610e+02 
-7.774324e+02 3.203365e+02 3.102529e+02 
1.677371e+02 3.579142e+02 -9.634206e+01 
1.476719e+03 7.906857e+02 -7.370287e+01 
-1.220690e+03 -9.936723e+02 -5.992319e+02 
4.780662e+02 -1.060688e+03 5.123416e+02 
-5.326448e+02 -3.632597e+02 3.174541e+02 
8.971065e+02 -6.649842e+02 2.023021e+02 
1.633579e+02 5.437302e+02 2.985321e+02 
4.338414e+02 5.759770e+02 -6.402828e+02 
-2.303717e+02 1.372427e+03 6.263513e+01 
1.103982e+03 2.495751e+02 3.703107e+02 
-7.795894e+02 3.146401e+02 -6.910266e+02 
-1.302710e+02 5.187131e+02 -7.504950e+02 
2.022938e+02 9.392007e+02 -1.674385e+02 
1.286385e+03 1.632011e+03 -1.152656e+03 
0.000000e+00 0.000000e+00 0.000000e+00 
0.000000e+00 0.000000e+00 0.000000e+00 
0.000000e+00 0.000000e+00 0.000000e+00 
0.000000e+00 0.000000e+00 0.000000e+00 
0.000000e+00 0.000000e+00 0.000000e+00 
0.000000e+00 0.000000e+00 0.000000e+00 
0.000000e+00 0.000000e+00 0.000000e+00 
0.000000e+00 0.000000e+00 0.000000e+00 
0.000000e+00 0.000000e+00 0.000000e+00 
0.000000e+00 0.000000e+00 0.000000e+00 
0.000000e+00 0.000000e+00 0.000000e+00 
0.000000e+00 0.000000e+00 0.000000e+00 
0.000000e+00 0.000000e+00 0.000000e+00 
0.000000e+00 0.000000e+00 0.000000e+00 
0.000000e+00 0.000000e+00 0.000000e+00 
0.000000e+00 0.000000e+00 0.000000e+00 
0.000000e+00 0.000000e+00 0.000000e+00 
0.000000e+00 0.000000e+00 0.000000e+00 
0.000000e+00 0.000000e+00 0.000000e+00 
0.000000e+00 0.000000e+00 0.000000e+00 
0.000000e+00 0.000000e+00 0.000000e+00 
0.000000e+00 0.000000e+00 0.000000e+00 
0.000000e+00 0.000000e+00 0.000000e+00 
0.000000e+00 0.000000e+00 0.000000e+00 
0.000000e+00 0.000000e+00 0.000000e+00 
0.000000e+00 0.000000e+00 0.000000e+00 
0.000000e+00 0.000000e+00 0.000000e+00 
0.000000e+00 0.000000e+00 0.000000e+00 
0.000000e+00 0.000000e+00 0.000000e+00 
0.000000e+00 0.000000e+00 0.000000e+00 
0.000000e+00 0.000000e+00 0.000000e+00 
0.000000e+00 0.000000e+00 0.000000e+00 
0.000000e+00 0.000000e+00 0.000000e+00 
0.000000e+00 0.000000e+00 0.000000e+00 
0.000000e+00 0.000000e+00 0.000000e+00 
0.000000e+00 0.000000e+00 0.000000e+00 
0.000000e+00 0.000000e+00 0.000000e+00 
0.000000e+00 0.000000e+00 0.000000e+00 
0.000000e+00 0.000000e+00 0.000000e+00 
0.000000e+00 0.000000e+00 0.000000e+00 
0.000000e+00 0.000000e+00 0.000000e+00 
0.000000e+00 0.000000e+00 0.000000e+00 
0.000000e+00 0.000000e+00 0.000000e+00 
0.000000e+00 0.000000e+00 0.000000e+00 
0.000000e+00 0.000000e+00 0.000000e+00 
0.000000e+00 0.000000e+00 0.000000e+00 
0.000000e+00 0.000000e+00 0.000000e+00 
0.000000e+00 0.000000e+00 0.000000e+00 
0.000000e+00 0.000000e+00 0.000000e+00 
0.000000e+00 0.000000e+00 0.000000e+00 
0.000000e+00 0.000000e+00 0.000000e+00 
0.000000e+00 0.000000e+00 0.000000e+00 
0.000000e+00 0.000000e+00 0.000000e+00 
0.000000e+00 0.000000e+00 0.000000e+00 
0.000000e+00 0.000000e+00 0.000000e+00 
0.000000e+00 0.000000e+00 0.000000e+00 
0.000000e+00 0.000000e+00 0.000000e+00 
0.000000e+00 0.000000e+00 0.000000e+00 
0.000000e+00 0.000000e+00 0.000000e+00 
0.000000e+00 0.000000e+00 0.000000e+00 
0.000000e+00 0.000000e+00 0.000000e+00 
0.000000e+00 0.000000e+00 0.000000e+00 
0.000000e+00 0.000000e+00 0.000000e+00 
0.000000e+00 0.000000e+00 0.000000e+00 
0.000000e+00 0.000000e+00 0.000000e+00 
0.000000e+00 0.000000e+00 0.000000e+00 
0.000000e+00 0.000000e+00 0.000000e+00 
0.000000e+00 0.000000e+00 0.000000e+00 
0.000000e+00 0.000000e+00 0.000000e+00 
0.000000e+00 0.000000e+00 0.000000e+00 
0.000000e+00 0.000000e+00 0.000000e+00 
0.000000e+00 0.000000e+00 0.000000e+00 
0.000000e+00 0.000000e+00 0.000000e+00 
0.000000e+00 0.000000e+00 0.000000e+00 
0.000000e+00 0.000000e+00 0.000000e+00 
0.000000e+00 0.000000e+00 0.000000e+00 
0.000000e+00 0.000000e+00 0.000000e+00 
0.000000e+00 0.000000e+00 0.000000e+00 
0.000000e+00 0.000000e+00 0.000000e+00 
0.000000e+00 0.000000e+00 0.000000e+00 
0.000000e+00 0.000000e+00 0.000000e+00 
0.000000e+00 0.000000e+00 0.000000e+00 
0.000000e+00 0.000000e+00 0.000000e+00 
0.000000e+00 0.000000e+00 0.000000e+00 
0.000000e+00 0.000000e+00 0.000000e+00 
0.000000e+00 0.000000e+00 0.000000e+00 
0.000000e+00 0.000000e+00 0.000000e+00 
0.000000e+00 0.000000e+00 0.000000e+00 
0.000000e+00 0.000000e+00 0.000000e+00 
0.000000e+00 0.000000e+00 0.000000e+00 
0.000000e+00 0.000000e+00 0.000000e+00 
0.000000e+00 0.000000e+00 0.000000e+00 
0.000000e+00 0.000000e+00 0.000000e+00 
0.000000e+00 0.000000e+00 0.000000e+00 
0.000000e+00 0.000000e+00 0.000000e+00 
0.000000e+00 0.000000e+00 0.000000e+00 
0.000000e+00 0.000000e+00 0.000000e+00 
0.000000e+00 0.000000e+00 0.000000e+00 
0.000000e+00 0.000000e+00 0.000000e+00 
0.000000e+00 0.000000e+00 0.000000e+00 
0.000000e+00 0.000000e+00 0.000000e+00 
0.000000e+00 0.000000e+00 0.000000e+00 
0.000000e+00 0.000000e+00 0.000000e+00 
0.000000e+00 0.000000e+00 0.000000e+00 
0.000000e+00 0.000000e+00 0.000000e+00 
0.000000e+00 0.000000e+00 0.000000e+00 
0.000000e+00 0.000000e+00 0.000000e+00 
0.000000e+00 0.000000e+00 0.000000e+00 
0.000000e+00 0.000000e+00 0.000000e+00 
0.000000e+00 0.000000e+00 0.000000e+00 
0.000000e+00 0.000000e+00 0.000000e+00 
0.000000e+00 0.000000e+00 0.000000e+00 
0.000000e+00 0.000000e+00 0.000000e+00 
0.000000e+00 0.000000e+00 0.000000e+00 
0.000000e+00 0.000000e+00 0.000000e+00 
0.000000e+00 0.000000e+00 0.000000e+00 
0.000000e+00 0.000000e+00 0.000000e+00 
0.000000e+00 0.000000e+00 0.000000e+00 
0.000000e+00 0.000000e+00 0.000000e+00 
0.000000e+00 0.000000e+00 0.000000e+00 
0.000000e+00 0.000000e+00 0.000000e+00 
0.000000e+00 0.000000e+00 0.000000e+00 
0.000000e+00 0.000000e+00 0.000000e+00 
0.000000e+00 0.000000e+00 0.000000e+00 
0.000000e+00 0.000000e+00 0.000000e+00 
0.000000e+00 0.000000e+00 0.000000e+00 
0.000000e+00 0.000000e+00 0.000000e+00 
0.000000e+00 0.000000e+00 0.000000e+00 
0.000000e+00 0.000000e+00 0.000000e+00 
0.000000e+00 0.000000e+00 0.000000e+00 
0.000000e+00 0.000000e+00 0.000000e+00 
0.000000e+00 0.000000e+00 0.000000e+00 
0.000000e+00 0.000000e+00 0.000000e+00 
0.000000e+00 0.000000e+00 0.000000e+00 
0.000000e+00 0.000000e+00 0.000000e+00 
0.000000e+00 0.000000e+00 0.000000e+00 
0.000000e+00 0.000000e+00 0.000000e+00 
0.000000e+00 0.000000e+00 0.000000e+00 
0.000000e+00 0.000000e+00 0.000000e+00 
0.000000e+00 0.000000e+00 0.000000e+00 
0.000000e+00 0.000000e+00 0.000000e+00 
0.000000e+00 0.000000e+00 0.000000e+00 
0.000000e+00 0.000000e+00 0.000000e+00 
0.000000e+00 0.000000e+00 0.000000e+00 
0.000000e+00 0.000000e+00 0.000000e+00 
0.000000e+00 0.000000e+00 0.000000e+00 
0.000000e+00 0.000000e+00 0.000000e+00 
0.000000e+00 0.000000e+00 0.000000e+00 
0.000000e+00 0.000000e+00 0.000000e+00 
0.000000e+00 0.000000e+00 0.000000e+00 
0.000000e+00 0.000000e+00 0.000000e+00 
0.000000e+00 0.000000e+00 0.000000e+00 
0.000000e+00 0.000000e+00 0.000000e+00 
0.000000e+00 0.000000e+00 0.000000e+00 
0.000000e+00 0.000000e+00 0.000000e+00 
0.000000e+00 0.000000e+00 0.000000e+00 
0.000000e+00 0.000000e+00 0.000000e+00 
0.000000e+00 0.000000e+00 0.000000e+00 
0.000000e+00 0.000000e+00 0.000000e+00 
0.000000e+00 0.000000e+00 0.000000e+00 
0.000000e+00 0.000000e+00 0.000000e+00 
0.000000e+00 0.000000e+00 0.000000e+00 
0.000000e+00 0.000000e+00 0.000000e+00 
0.000000e+00 0.000000e+00 0.000000e+00 
0.000000e+00 0.000000e+00 0.000000e+00 
0.000000e+00 0.000000e+00 0.000000e+00 
0.000000e+00 0.000000e+00 0.000000e+00 
0.000000e+00 0.000000e+00 0.000000e+00 
0.000000e+00 0.000000e+00 0.000000e+00 
0.000000e+00 0.000000e+00 0.000000e+00 
0.000000e+00 0.000000e+00 0.000000e+00 
0.000000e+00 0.000000e+00 0.000000e+00 
0.000000e+00 0.000000e+00 0.000000e+00 
0.000000e+00 0.000000e+00 0.000000e+00 
0.000000e+00 0.000000e+00 0.000000e+00 
0.000000e+00 0.000000e+00 0.000000e+00 
0.000000e+00 0.000000e+00 0.000000e+00 
0.000000e+00 0.000000e+00 0.000000e+00 
0.000000e+00 0.000000e+00 0.000000e+00 
0.000000e+00 0.000000e+00 0.000000e+00 
0.000000e+00 0.000000e+00 0.000000e+00 
0.000000e+00 0.000000e+00 0.000000e+00 
0.000000e+00 0.000000e+00 0.000000e+00 
0.000000e+00 0.000000e+00 0.000000e+00 
0.000000e+00 0.000000e+00 0.000000e+00 
0.000000e+00 0.000000e+00 0.000000e+00 
0.000000e+00 0.000000e+00 0.000000e+00 
0.000000e+00 0.000000e+00 0.000000e+00 
0.000000e+00 0.000000e+00 0.000000e+00 
0.000000e+00 0.000000e+00 0.000000e+00 
0.000000e+00 0.000000e+00 0.000000e+00 
0.000000e+00 0.000000e+00 0.000000e+00 
0.000000e+00 0.000000e+00 0.000000e+00 
0.000000e+00 0.000000e+00 0.000000e+00 
0.000000e+00 0.000000e+00 0.000000e+00 
0.000000e+00 0.000000e+00 0.000000e+00 
0.000000e+00 0.000000e+00 0.000000e+00 
0.000000e+00 0.000000e+00 0.000000e+00 
0.000000e+00 0.000000e+00 0.000000e+00 
0.000000e+00 0.000000e+00 0.000000e+00 
0.000000e+00 0.000000e+00 0.000000e+00 
0.000000e+00 0.000000e+00 0.000000e+00 
0.000000e+00 0.000000e+00 0.000000e+00 
0.000000e+00 0.000000e+00 0.000000e+00 
0.000000e+00 0.000000e+00 0.000000e+00 
0.000000e+00 0.000000e+00 0.000000e+00 
0.000000e+00 0.000000e+00 0.000000e+00 
0.000000e+00 0.000000e+00 0.000000e+00 
0.000000e+00 0.000000e+00 0.000000e+00 
0.000000e+00 0.000000e+00 0.000000e+00 
0.000000e+00 0.000000e+00 0.000000e+00 
0.000000e+00 0.000000e+00 0.000000e+00 
0.000000e+00 0.000000e+00 0.000000e+00 
0.000000e+00 0.000000e+00 0.000000e+00 
0.000000e+00 0.000000e+00 0.000000e+00 
0.000000e+00 0.000000e+00 0.000000e+00 
0.000000e+00 0.000000e+00 0.000000e+00 
0.000000e+00 0.000000e+00 0.000000e+00 
0.000000e+00 0.000000e+00 0.000000e+00 
0.000000e+00 0.000000e+00 0.000000e+00 
0.000000e+00 0.000000e+00 0.000000e+00 
0.000000e+00 0.000000e+00 0.000000e+00 
0.000000e+00 0.000000e+00 0.000000e+00 
0.000000e+00 0.000000e+00 0.000000e+00 
0.000000e+00 0.000000e+00 0.000000e+00 
0.000000e+00 0.000000e+00 0.000000e+00 
0.000000e+00 0.000000e+00 0.000000e+00 
0.000000e+00 0.000000e+00 0.000000e+00 
0.000000e+00 0.000000e+00 0.000000e+00 
0.000000e+00 0.000000e+00 0.000000e+00 
0.000000e+00 0.000000e+00 0.000000e+00 
0.000000e+00 0.000000e+00 0.000000e+00 
0.000000e+00 0.000000e+00 0.000000e+00 
0.000000e+00 0.000000e+00 0.000000e+00 
0.000000e+00 0.000000e+00 0.000000e+00 
0.000000e+00 0.000000e+00 0.000000e+00 
0.000000e+00 0.000000e+00 0.000000e+00 
0.000000e+00 0.000000e+00 0.000000e+00 
0.000000e+00 0.000000e+00 0.000000e+00 
0.000000e+00 0.000000e+00 0.000000e+00 
0.000000e+00 0.000000e+00 0.000000e+00 
0.000000e+00 0.000000e+00 0.000000e+00 
0.000000e+00 0.000000e+00 0.000000e+00 
0.000000e+00 0.000000e+00 0.000000e+00 
0.000000e+00 0.000000e+00 0.000000e+00 
0.000000e+00 0.000000e+00 0.000000e+00 
0.000000e+00 0.000000e+00 0.000000e+00 
0.000000e+00 0.000000e+00 0.000000e+00 
0.000000e+00 0.000000e+00 0.000000e+00 
0.000000e+00 0.000000e+00 0.000000e+00 
0.000000e+00 0.000000e+00 0.000000e+00 
0.000000e+00 0.000000e+00 0.000000e+00 
0.000000e+00 0.000000e+00 0.000000e+00 
0.000000e+00 0.000000e+00 0.000000e+00 
0.000000e+00 0.000000e+00 0.000000e+00 
0.000000e+00 0.000000e+00 0.000000e+00 
0.000000e+00 0.000000e+00 0.000000e+00 
0.000000e+00 0.000000e+00 0.000000e+00 
0.000000e+00 0.000000e+00 0.000000e+00 
0.000000e+00 0.000000e+00 0.000000e+00 
0.000000e+00 0.000000e+00 0.000000e+00 
0.000000e+00 0.000000e+00 0.000000e+00 
0.000000e+00 0.000000e+00 0.000000e+00 
0.000000e+00 0.000000e+00 0.000000e+00 
0.000000e+00 0.000000e+00 0.000000e+00 
0.000000e+00 0.000000e+00 0.000000e+00 
0.000000e+00 0.000000e+00 0.000000e+00 
0.000000e+00 0.000000e+00 0.000000e+00 
0.000000e+00 0.000000e+00 0.000000e+00 
0.000000e+00 0.000000e+00 0.000000e+00 
0.000000e+00 0.000000e+00 0.000000e+00 
0.000000e+00 0.000000e+00 0.000000e+00 
0.000000e+00 0.000000e+00 0.000000e+00 
0.000000e+00 0.000000e+00 0.000000e+00 
0.000000e+00 0.000000e+00 0.000000e+00 
0.000000e+00 0.000000e+00 0.000000e+00 
0.000000e+00 0.000000e+00 0.000000e+00 