# vtk DataFile Version 3.1
*description-name of input file* step:1301 
ASCII
DATASET UNSTRUCTURED_GRID
POINTS 1605 FLOAT
-7.153990e-09 -5.804175e-09 -8.115203e-11
-7.597153e-09 -4.541251e-09 -4.939634e-10
-6.330915e-09 -4.995843e-09 -7.292358e-10
-7.718585e-09 -4.013425e-09 2.001267e-09
-5.507475e-09 -5.968046e-09 4.272925e-11
1.208255e-08 7.057546e-09 -1.071445e-08
1.368899e-08 7.261824e-09 -1.086512e-08
1.293631e-08 6.034968e-09 -1.211529e-08
-6.070623e-09 -6.147722e-09 1.025868e-09
-6.352487e-09 -2.859896e-09 8.739842e-10
-4.421162e-09 -4.677037e-09 -1.056085e-09
-6.261869e-09 -2.848112e-09 -4.579324e-10
-5.604201e-09 -5.451164e-09 2.377096e-09
-5.840572e-09 -3.741366e-09 1.864066e-09
-5.096444e-09 -3.634861e-09 -1.493022e-09
-7.457278e-09 -4.313495e-09 3.255773e-09
-3.449121e-09 -5.390790e-09 2.575851e-10
-6.493585e-09 -1.210551e-09 1.975167e-10
-5.377906e-09 -1.374005e-09 -1.017307e-09
-3.917096e-09 -4.070146e-09 -3.482576e-09
-5.032953e-09 -2.808844e-09 -3.084798e-09
-4.035715e-09 -2.133153e-09 -3.901113e-09
-6.358699e-09 -2.572350e-09 2.442766e-09
-5.944343e-09 2.458681e-10 -2.193822e-09
-6.239516e-09 4.099828e-10 -7.861746e-10
-3.606915e-09 -4.684522e-09 1.989731e-09
-7.206839e-09 -1.464617e-09 1.172329e-09
-5.882361e-09 -3.487520e-09 4.080779e-09
-4.155039e-09 -2.016126e-09 -3.645454e-10
-7.816485e-09 -2.277557e-09 3.287427e-09
-2.432219e-09 -4.597406e-09 -2.082588e-09
-2.774053e-09 -3.200968e-09 -3.763091e-09
-2.243227e-09 -4.134434e-09 -3.236775e-09
-3.560847e-09 -3.394050e-09 -6.394295e-10
-5.978972e-09 -2.568790e-09 4.301574e-09
-4.177610e-09 -9.215705e-10 -2.228077e-09
-6.135019e-09 -6.127919e-10 2.066489e-09
-4.717583e-09 -2.950239e-10 4.988201e-10
-3.021276e-09 -2.016111e-09 -2.048450e-09
-3.949799e-09 -4.072895e-09 3.801276e-09
-4.762750e-09 2.929249e-10 -6.825518e-10
-3.842442e-09 7.341279e-10 -5.208632e-09
-3.973225e-09 3.932460e-10 -2.919867e-09
-4.668669e-09 1.027219e-09 -3.899860e-09
-4.169258e-09 -2.535342e-09 2.177641e-09
-1.770194e-09 -3.148093e-09 -6.333412e-10
-4.316261e-09 2.304217e-09 -4.192370e-09
-2.923297e-09 -1.556246e-09 -3.390610e-09
-3.231659e-09 1.559440e-10 -2.764644e-09
-1.550248e-09 -1.769741e-09 -3.408876e-09
-3.379946e-09 3.282068e-10 -7.678159e-10
-3.086359e-09 -1.974141e-09 1.863314e-10
-3.313926e-09 1.221484e-10 -4.758202e-09
-1.841193e-09 -2.326910e-09 -1.882869e-09
-3.882056e-09 -3.934569e-10 8.211814e-09
-2.240278e-09 -1.499755e-09 7.557179e-09
-1.725399e-09 2.677753e-10 7.380396e-09
-1.504012e-09 4.620621e-10 -4.177655e-09
-5.759082e-09 -3.270543e-09 5.924518e-09
-4.277077e-09 2.296054e-09 -2.384473e-09
-3.632281e-09 -2.850632e-09 3.737045e-09
-4.490510e-09 -2.957384e-10 2.539318e-09
-3.869310e-09 -1.462444e-09 1.236684e-09
-5.449668e-09 2.263365e-09 -2.035381e-10
-4.664323e-09 6.665439e-10 1.220586e-09
-6.516261e-09 1.890343e-09 1.805624e-09
-4.743579e-09 -4.545848e-09 5.734201e-09
-4.667671e-09 -3.821136e-09 6.879835e-09
-6.126304e-09 -1.704711e-09 6.654426e-09
-2.028717e-09 1.837976e-09 2.128006e-09
-1.816618e-11 2.357827e-09 3.719601e-09
-1.063631e-09 1.711441e-09 7.541537e-10
-4.646502e-09 7.694128e-10 -1.110247e-09
-3.134654e-09 -4.443685e-09 5.457152e-09
9.984764e-10 3.492119e-10 3.681776e-09
8.636193e-10 1.178066e-09 4.335545e-09
2.610911e-11 7.839356e-10 5.590089e-09
-5.522787e-09 3.341339e-09 1.014948e-09
-4.729962e-09 -1.669481e-09 5.451793e-09
-1.083959e-09 -2.294071e-11 -1.305009e-09
-4.542408e-09 -2.335254e-09 4.607467e-09
-3.453676e-09 1.389168e-10 7.069374e-10
-2.205619e-09 -5.110932e-10 2.102317e-11
-5.892795e-09 2.564621e-09 3.721169e-09
-2.538022e-09 -5.196541e-09 3.781388e-09
-3.016126e-09 2.757556e-09 -3.548370e-09
-2.286044e-09 -3.979315e-09 2.751250e-09
-5.650239e-09 -4.785145e-10 5.476117e-09
-2.633874e-09 1.675805e-09 -2.204288e-09
-4.212897e-09 -7.282268e-11 4.873837e-09
-2.878995e-09 -2.859352e-09 4.964585e-09
-5.775457e-09 -7.099618e-10 4.174522e-09
-3.338903e-09 -1.002633e-09 4.285379e-09
-5.764311e-10 -1.485575e-09 6.557346e-12
-4.478630e-09 3.441009e-09 2.362890e-09
-3.425458e-09 2.879450e-09 -8.433549e-10
-3.241452e-10 -1.499315e-09 -3.348290e-09
3.158037e-10 -2.693096e-09 -2.740485e-09
-3.974280e-09 -2.409297e-09 7.694922e-09
-5.480791e-09 -1.466158e-09 7.606365e-09
-5.483606e-09 2.293367e-10 7.733776e-09
9.398413e-10 2.168682e-09 3.219003e-09
-3.365575e-09 1.438385e-09 9.956387e-10
-3.718553e-09 2.936803e-09 5.254046e-10
-6.472942e-09 1.365432e-09 4.796318e-09
-4.455211e-09 5.208278e-11 3.664774e-09
-3.603540e-09 -2.565257e-09 6.265184e-09
-1.109254e-10 2.256471e-11 -3.304347e-09
-1.337340e-09 -2.860903e-09 3.640145e-09
-5.176870e-09 1.234474e-09 6.737179e-09
-3.562915e-09 8.460833e-10 3.356047e-09
-4.078611e-09 2.222746e-09 5.444096e-09
-4.312912e-09 1.905288e-09 3.086686e-09
-2.966620e-10 -3.919325e-09 2.709634e-09
8.809343e-10 -3.642129e-09 4.314851e-09
-4.076476e-09 2.349298e-09 1.873867e-09
4.624603e-10 -1.936232e-09 -5.359834e-10
-4.061054e-09 2.834204e-09 4.094556e-09
1.322671e-09 -9.439770e-10 -3.043686e-09
-7.225080e-10 -3.880832e-09 6.144938e-09
-7.824070e-10 -7.317159e-10 1.272750e-09
-2.231303e-09 -3.345619e-09 6.576959e-09
-1.916645e-09 -2.188543e-09 5.472426e-09
-1.530050e-09 -3.183074e-10 2.862597e-09
-1.391718e-09 -1.741962e-09 4.307207e-09
-2.653647e-09 1.399390e-09 3.718730e-09
1.701833e-09 -8.019563e-10 -1.314768e-09
4.814670e-10 8.615061e-10 -1.300873e-09
1.541221e-09 -6.299085e-10 5.925682e-09
-3.181397e-09 1.163272e-09 6.077498e-09
9.383314e-10 7.245167e-10 -3.202027e-09
9.794001e-10 -4.548542e-09 2.991812e-09
-7.618093e-10 -6.855711e-10 3.979948e-09
9.896023e-10 -1.083170e-09 -7.746983e-11
6.313519e-10 -3.560734e-09 5.430078e-09
-3.067289e-09 9.238116e-10 7.448698e-09
-2.334843e-09 2.180062e-09 5.616395e-09
-1.177242e-09 -1.922543e-09 6.542742e-09
2.293686e-09 -4.661299e-09 3.498500e-09
2.015488e-09 -3.839104e-09 2.375214e-09
-1.877874e-10 -1.579504e-09 2.697851e-09
-1.665294e-10 -2.736568e-09 7.058995e-09
1.348679e-09 -1.626501e-09 1.636154e-09
1.917368e-09 -1.413260e-10 -2.061298e-09
-9.538606e-10 1.692618e-09 3.554529e-09
-7.368019e-10 -1.498534e-09 7.851168e-09
1.720845e-09 5.332014e-10 -1.833219e-11
2.445794e-09 -3.343105e-09 4.678850e-09
3.060105e-09 -3.981118e-09 3.488417e-09
1.919490e-09 1.480424e-09 -1.136678e-09
5.094768e-10 -2.353995e-09 6.155624e-09
-1.647947e-09 6.667542e-10 5.124461e-09
2.847699e-09 -1.924819e-10 8.727990e-10
2.462903e-09 4.058517e-10 -3.933743e-09
1.719913e-09 -2.685797e-09 4.899559e-09
3.501426e-09 -2.673141e-09 2.463234e-09
3.322211e-09 7.009737e-10 -2.199077e-09
2.670205e-09 2.404241e-09 -2.565556e-09
2.683005e-09 2.181924e-09 -4.044444e-09
3.545216e-09 9.591241e-10 -3.908068e-09
4.099729e-09 1.244886e-09 -5.226242e-09
1.243099e-09 -1.414168e-09 4.257660e-09
5.708889e-10 -9.099864e-10 7.178027e-09
2.505011e-09 -7.743738e-10 2.059733e-09
1.260537e-09 1.469105e-09 6.490606e-10
2.105140e-09 1.644048e-09 -1.357447e-10
4.598334e-09 1.673345e-09 -3.533052e-09
2.626733e-10 1.188635e-09 7.672287e-09
1.456824e-09 1.200564e-09 2.054460e-09
2.786148e-09 -2.252395e-09 3.506047e-09
2.086705e-09 -2.158474e-10 3.345870e-09
3.626087e-09 -1.614156e-10 2.108204e-09
4.507857e-09 2.856514e-09 -3.494497e-09
3.179346e-09 9.331439e-10 -8.724647e-10
3.361736e-09 1.607174e-09 -1.767880e-09
4.858984e-09 2.502140e-09 -5.015353e-09
3.416400e-09 8.793917e-10 8.213796e-10
5.148797e-09 2.042986e-09 -5.992582e-09
5.481331e-09 1.396877e-09 -4.597212e-09
3.762750e-09 -4.600209e-11 -2.661695e-10
3.298768e-09 8.895657e-10 2.763536e-09
6.452426e-09 1.425052e-09 -5.843762e-09
5.828432e-09 2.662322e-09 -4.009516e-09
7.189214e-09 2.977204e-09 -6.733633e-09
6.665587e-09 2.037431e-09 -5.066223e-09
7.386659e-09 2.147402e-09 -6.534230e-09
6.200953e-09 3.423190e-09 -4.647145e-09
7.604791e-09 3.347852e-09 -5.550918e-09
8.665389e-09 2.777533e-09 -5.809961e-09
8.417529e-09 2.775751e-09 -7.115870e-09
8.540457e-09 4.018507e-09 -6.874453e-09
9.409730e-09 2.929321e-09 -6.682464e-09
1.034687e-08 4.313193e-09 -7.815987e-09
1.022669e-08 4.854441e-09 -7.798790e-09
9.457763e-09 3.835409e-09 -6.007457e-09
1.107268e-08 4.190818e-09 -6.894360e-09
1.002813e-08 4.699801e-09 -6.220304e-09
1.137300e-08 4.887608e-09 -8.638924e-09
1.128478e-08 6.390709e-09 -7.546630e-09
1.108864e-08 5.362484e-09 -6.500852e-09
1.280111e-08 4.877674e-09 -8.225217e-09
1.134588e-08 6.542976e-09 -1.006370e-08
1.153898e-08 5.805848e-09 -1.034016e-08
1.128119e-08 6.217905e-09 -8.953164e-09
1.221283e-08 5.036652e-09 -9.071111e-09
1.167585e-08 5.816779e-09 -7.059687e-09
1.287892e-08 5.616682e-09 -7.948862e-09
1.336066e-08 5.080215e-09 -9.161302e-09
1.389348e-08 5.467256e-09 -1.067184e-08
1.185958e-08 6.910849e-09 -8.645341e-09
1.432479e-08 6.690496e-09 -1.014821e-08
1.378044e-08 6.252000e-09 -8.718198e-09
1.354206e-08 7.742747e-09 -9.032725e-09
2.012315e-09 1.562236e-09 -6.362115e-10
-4.320976e-09 -3.115216e-09 7.287378e-09
7.287936e-09 2.562303e-09 -6.633932e-09
7.397002e-09 3.162528e-09 -6.142275e-09
1.250943e-08 6.546257e-09 -1.141487e-08
2.338469e-09 1.174248e-09 7.352201e-10
-4.071348e-09 3.105658e-10 -7.251839e-10
8.135090e-09 3.062693e-09 -5.680439e-09
4.167811e-10 1.393245e-10 7.425157e-09
-3.012460e-10 4.192827e-10 -1.302941e-09
-3.126468e-09 -9.300836e-10 -2.406547e-09
7.803371e-09 2.876477e-09 -6.924751e-09
-4.472873e-09 1.661637e-09 -3.142167e-09
-5.590292e-09 1.278443e-09 1.513105e-09
-4.512064e-11 1.435342e-09 3.945037e-09
1.392160e-09 -1.022038e-09 5.091671e-09
1.028678e-08 4.583817e-09 -7.807389e-09
-4.506770e-09 -3.852504e-09 -2.487799e-09
-3.897514e-09 2.643050e-09 1.199636e-09
-3.255638e-09 -2.854992e-09 4.350815e-09
-6.019524e-09 2.615841e-09 1.410286e-09
1.108066e-08 4.776651e-09 -6.697606e-09
1.443912e-10 9.862855e-10 6.631188e-09
1.852708e-10 4.420354e-10 -2.302610e-09
4.227266e-10 1.767947e-09 4.027573e-09
-4.636185e-09 -2.002368e-09 5.029630e-09
-1.626992e-09 -2.524723e-09 4.556286e-09
-4.098591e-09 3.188906e-09 1.444148e-09
-2.162150e-09 -2.485355e-09 -3.585983e-09
1.331265e-08 6.648396e-09 -1.149020e-08
[...]
POINT_DATA 1605
VECTORS vector_force float
4.486172e+02 -5.098181e+02 -7.933042e+02 
3.407210e+02 -1.258552e+03 -2.091210e+02 
6.369456e+00 2.189145e+01 -1.312991e+02 
6.458087e+02 -3.531000e+02 -6.691614e+01 
1.307832e+03 -5.378293e+02 7.153185e+01 
-8.251858e+02 -4.382539e+02 2.922990e+02 
2.417376e+02 1.978434e+02 -6.009903e+02 
-6.538923e+02 4.520455e+02 -2.739268e+02 
1.991658e+02 2.646474e+02 -1.714753e+02 
3.272059e+01 -3.498999e+02 -4.431947e+02 
9.437713e+02 -4.331856e+01 3.721364e+01 
4.338540e+02 -1.603140e+02 -4.972715e+02 
-9.851685e+02 -1.592370e+02 1.146934e+02 
-3.703716e+02 -2.513724e+02 -4.005894e+02 
-1.741826e+02 -1.794003e+02 -5.013755e+02 
8.031090e+02 3.829427e+01 4.790921e+02 
3.849207e+02 -4.320851e+02 2.288963e+02 
-2.096650e+02 -5.297861e+02 -6.840003e+02 
1.209323e+02 -3.696741e+02 -6.005898e+02 
1.366810e+02 -1.502772e+02 1.647385e+02 
-4.071310e+02 -8.816431e+02 -1.094009e+03 
-6.755426e+02 4.733935e+02 6.700321e+01 
-5.398248e+02 5.094029e+02 -5.404751e+02 
-5.443467e+02 -2.967058e+02 1.903858e+02 
-1.109237e+02 -4.100670e+02 8.675655e+02 
-1.082593e+03 -2.275953e+02 9.084387e+02 
7.046147e+02 -4.000963e+02 -1.213350e+03 
5.035888e+01 2.599968e+02 9.719746e+01 
7.896024e+01 -2.464564e+02 -2.384949e+02 
-4.628725e+02 1.173202e+03 -1.880409e+02 
-6.506571e+02 4.108028e+02 7.114251e+01 
1.513263e+02 2.790293e+02 2.311304e+02 
9.689966e+02 5.109743e+01 4.570296e+02 
3.511532e+02 -9.571317e+01 2.445455e+02 
1.134094e+02 1.906855e+02 1.077672e+02 
5.791938e+02 4.388150e+01 -4.745187e+02 
1.349872e+02 -1.833891e+02 -4.888543e+02 
9.456852e+00 -2.151847e+02 -1.514471e+02 
2.972415e+02 3.913693e+02 2.119180e+02 
2.527136e+02 1.551541e+02 -2.500481e+01 
-5.110865e+02 -5.553655e+02 3.004431e+02 
1.037495e+03 -2.173381e+02 -8.986235e+01 
1.789914e+02 5.034208e+02 1.893171e+02 
8.322568e+02 -1.105189e+03 -9.958365e+02 
-4.772784e+02 1.877987e+02 2.019083e+02 
-3.166309e+02 -1.051398e+03 -3.824588e+02 
-9.654851e+02 -1.579935e+03 -6.989457e+02 
8.547081e+02 1.010988e+03 -9.318851e+01 
1.025723e+00 -8.257594e+01 6.002328e+02 
8.678136e+02 4.730470e+02 -1.231033e+02 
8.721655e+02 -2.443666e+02 -1.708690e+02 
6.995708e+02 1.924106e+02 -2.354239e+02 
6.965453e+02 3.808441e+02 4.778256e+01 
5.359787e+01 -5.735746e+01 3.647604e+02 
1.152001e+02 7.652459e+02 9.637059e+01 
4.848363e+02 6.983934e+02 -2.719151e+02 
7.870105e+02 5.962833e+02 -4.388516e+02 
1.251386e+02 1.312993e+03 4.981043e+02 
2.280290e+02 -3.754376e+02 1.068109e+03 
4.081025e+02 6.989097e+02 -4.531726e+02 
4.217473e+01 -5.022047e+02 4.428080e+02 
3.527666e+01 3.409435e+02 -6.073656e+02 
-5.016080e+01 -9.113744e+02 -1.000165e+02 
-4.611611e+01 8.059358e+02 4.183453e+02 
3.593074e+02 1.810963e+02 3.607616e+02 
3.915346e+01 2.018958e+02 -1.886982e+01 
1.394758e+03 3.363991e+02 2.794434e+02 
4.051783e+02 -6.362434e+02 4.150099e+02 
7.341233e+02 9.466298e+01 -4.838315e+01 
-1.448221e+02 -4.019471e+02 -5.654871e+01 
-4.172998e+02 2.095267e+02 -1.355726e+02 
1.027881e+03 -1.238143e+02 -2.285832e+01 
1.788382e+02 7.497313e+02 8.843428e+02 
-3.853111e+02 -1.986196e+02 2.638337e+01 
2.593279e+02 -1.457261e+02 -1.782826e+02 
-7.842033e+01 -3.577842e+02 -5.662774e+02 
1.757153e+01 -8.319975e+02 -5.547168e+02 
7.514684e+02 6.099457e+02 9.098740e+02 
7.761372e+02 1.233712e+02 2.516195e+02 
1.501854e+02 1.905951e+01 1.593920e+02 
-1.765603e+02 -3.387773e+01 3.883007e+02 
3.688120e+02 3.448202e+02 1.350292e+02 
-3.324016e+02 2.929453e+02 -7.044544e+01 
8.498810e+01 -5.474924e+02 -4.855348e+02 
4.269380e+01 -1.103260e+02 1.009383e+02 
-2.362603e+02 1.362113e+02 2.374201e+02 
-4.644057e+02 -7.994004e+02 -2.316371e+02 
3.014717e+02 -1.858747e+02 -5.510751e+02 
5.778853e+02 3.147914e+02 -9.457809e+01 
3.697767e+02 -5.457576e+02 -3.608874e+02 
-5.649233e+01 8.409110e+02 -2.362416e+01 
5.269367e+02 9.734526e+01 -1.548911e+02 
-4.318669e+02 -2.210261e+02 -5.704729e+02 
1.405961e+02 5.727721e+02 -1.187594e+02 
5.309420e+02 1.248622e+03 -8.474069e+02 
5.879523e+02 -1.222484e+02 6.985243e+02 
-1.621394e+02 3.956899e+02 4.110307e+02 
-2.940322e+02 2.690281e+02 -1.711317e+02 
6.654530e+02 1.243390e+03 -5.823062e+02 
-1.447098e+01 3.388614e+02 2.463259e+02 
-3.380690e+01 7.912985e+02 -2.512228e+02 
6.860519e+02 2.937884e+02 -4.143330e+01 
-7.777154e+01 5.880972e+01 -1.831722e+02 
1.081775e+02 -6.983525e+02 1.715925e+02 
3.012586e+02 -5.582374e+02 -4.139450e+02 
6.793349e+02 1.824695e+02 -5.563554e+01 
2.316392e+02 3.735556e+02 2.229585e+02 
-5.903675e+02 4.250631e+02 -7.415151e+02 
-7.720006e+02 -5.227801e+02 -8.557177e+02 
7.983061e+02 7.258165e+02 -1.304470e+02 
5.629352e+02 -1.549575e+02 -5.903711e+01 
7.625613e+02 1.875041e+01 -4.841171e+02 
1.287863e+02 -1.956758e+01 1.192253e+02 
4.494716e+02 -5.814955e+02 -3.539087e+02 
8.429755e+01 9.189897e+01 1.924363e+02 
4.272160e+02 3.588885e+02 -1.383024e+02 
2.221137e+02 2.404179e+02 -3.487930e+02 
-2.302342e+02 6.284062e+02 1.297189e+02 
3.468191e+02 7.966257e+02 8.793015e+02 
2.548843e-01 2.279810e+00 -6.231325e+00 
1.502746e+02 2.694272e+02 -5.079108e+02 
-7.886151e+02 1.046407e+01 6.402076e+02 
1.454372e+02 -1.313282e+01 -3.154795e+02 
1.970630e+02 -1.957349e+02 -6.973906e+01 
-2.076407e+02 4.938599e+01 -4.322721e+02 
3.775280e+02 -5.970046e+01 3.009190e+02 
1.662717e+02 2.664144e+02 6.693891e+02 
5.401840e+01 7.436451e+01 -3.440027e+02 
-4.426046e+01 -2.090510e+02 -3.705743e+02 
6.325989e+02 1.775971e+02 -2.318693e+02 
-3.993032e+00 -1.315170e+00 4.973148e+02 
-2.121088e+02 -1.892406e+02 5.471324e+02 
1.000244e+02 -1.097732e+02 -2.761566e+01 
1.774979e+02 1.743884e+02 1.246219e+02 
-4.183338e+02 2.568703e+02 1.118092e+03 
1.206073e+03 3.160018e+02 6.569564e+02 
4.953742e+02 -6.908080e+02 -5.498521e+01 
-2.940610e+02 -1.951069e+02 7.925289e+01 
4.438092e+01 -3.947376e+02 2.645023e+02 
-1.120223e+02 -2.997243e+01 5.619805e+02 
-2.092491e+02 -1.514290e+02 -5.097588e+02 
5.628624e+02 1.661082e+02 -5.943337e+02 
-1.614594e+02 -1.130225e+00 -3.526845e+02 
4.101336e+02 1.933422e+02 4.836327e+02 
1.320920e+02 -1.334086e+02 2.727739e+02 
3.029213e+02 -3.175335e+02 8.523656e+01 
4.486854e+02 -6.790053e+00 -2.735767e+02 
5.682731e+02 1.218787e+02 -5.308933e+01 
6.905520e+02 6.451767e+02 9.420103e+02 
1.322480e+02 8.309503e+02 2.667112e+01 
-3.127722e+02 8.434538e+01 7.447144e+01 
-1.251238e+02 -6.567423e+02 -3.317121e+02 
8.779345e+02 4.913704e+02 1.468791e+01 
-3.104573e+02 5.244492e+02 -4.923380e+01 
-1.270610e+02 -4.770781e+01 -2.621626e+02 
6.204308e+02 9.954088e+02 -5.437596e+01 
2.119292e+02 -5.152362e+02 6.674537e+02 
-1.975318e+02 -5.341299e+02 5.878054e+02 
-7.835274e+02 3.300091e+02 8.267112e+02 
1.038652e+02 2.162075e+02 1.436492e+02 
-3.548429e+02 -5.039463e+02 1.634289e+02 
-2.278899e+02 -2.991059e+02 -2.483360e+01 
-4.992939e+01 -4.014876e+02 -2.604059e+02 
-5.945419e+01 -2.749679e+02 2.398100e+02 
8.258820e+02 1.947100e+01 -3.171055e+02 
7.714458e+02 -1.733963e+02 2.824214e+02 
8.472339e+02 3.471270e+02 2.982541e+02 
1.770580e+03 1.695568e+02 -9.492589e+02 
-5.897847e+01 8.171635e+02 -7.817267e+01 
-1.124359e+02 1.343888e+02 -1.503528e+02 
-8.746068e+01 -3.161933e+02 -1.958167e+02 
3.157042e+02 2.411292e+02 -1.422069e+02 
5.255910e+02 -6.799240e+02 1.746929e+02 
8.635141e+02 4.429698e+02 -4.335740e+02 
6.611943e+02 -4.687698e+02 -5.932788e+02 
4.588371e+02 -7.026236e+02 -5.725423e+02 
-3.917992e+02 3.565985e+02 -2.353560e+02 
4.224107e+02 -7.039303e+02 2.156100e+02 
5.165103e+01 -6.973116e+02 1.342863e+02 
1.378156e+03 7.020781e+02 6.778446e+02 
-7.297867e+02 -1.580153e+01 -8.189537e+02 
5.575028e+02 -9.346087e+02 -2.446624e+02 
-6.334895e+02 -6.265746e+02 -7.005560e+02 
-3.547751e+02 5.773842e+02 1.033595e+02 
2.769802e+02 1.570495e+02 -7.793320e+02 
3.932422e+02 2.040147e+02 1.893205e+02 
-1.026941e+03 -9.374450e+02 2.224146e+02 
2.006448e+02 5.271494e+02 -4.084712e+01 
-5.312878e+02 3.305283e+02 1.129463e+03 
-7.673615e+02 -8.686560e+02 -7.350657e+02 
-1.368646e+03 -2.379015e+02 -6.827083e+01 
-9.804210e+02 -1.602709e+02 7.063432e+02 
-5.313614e+02 1.895196e+02 -2.045286e+02 
3.519115e+02 6.925412e+02 -9.935981e+02 
-1.143068e+03 -7.263875e+02 8.322635e+01 
1.060648e+01 2.099232e+02 6.007856e+02 
-9.493273e+02 -2.351495e+02 7.512570e+02 
-1.114222e+01 -7.938075e+02 -1.611817e+02 
2.582898e+02 4.202849e+02 3.418101e+02 
1.998156e+02 -2.180872e+02 6.019980e+01 
1.934001e+02 -1.487503e+02 -7.919027e+02 
-8.412717e+01 -4.152351e+02 6.863753e+02 
-1.605142e+02 -2.230544e+01 6.482221e+02 
4.737135e+02 3.637106e+01 2.626541e+02 
4.767252e+02 -2.781131e+02 1.539196e+02 
7.832679e+02 -3.040587e+02 4.233497e+02 
-4.101391e+01 4.528329e+02 -4.726039e+02 
-1.110029e+02 3.124734e+02 -1.558657e+02 
-7.355063e+02 3.182578e+02 5.885934e+02 
-2.125139e+01 1.695256e+02 -1.058224e+03 
3.490918e+02 6.784808e+01 8.094558e+01 
1.980608e+02 8.542726e+02 -2.081213e+02 
-1.229742e+02 1.289404e+03 -6.122869e+02 
0.000000e+00 0.000000e+00 0.000000e+00 
0.000000e+00 0.000000e+00 0.000000e+00 
0.000000e+00 0.000000e+00 0.000000e+00 
0.000000e+00 0.000000e+00 0.000000e+00 
0.000000e+00 0.000000e+00 0.000000e+00 
0.000000e+00 0.000000e+00 0.000000e+00 
0.000000e+00 0.000000e+00 0.000000e+00 
0.000000e+00 0.000000e+00 0.000000e+00 
0.000000e+00 0.000000e+00 0.000000e+00 
0.000000e+00 0.000000e+00 0.000000e+00 
0.000000e+00 0.000000e+00 0.000000e+00 
0.000000e+00 0.000000e+00 0.000000e+00 
0.000000e+00 0.000000e+00 0.000000e+00 
0.000000e+00 0.000000e+00 0.000000e+00 
0.000000e+00 0.000000e+00 0.000000e+00 
0.000000e+00 0.000000e+00 0.000000e+00 
0.000000e+00 0.000000e+00 0.000000e+00 
0.000000e+00 0.000000e+00 0.000000e+00 
0.000000e+00 0.000000e+00 0.000000e+00 
0.000000e+00 0.000000e+00 0.000000e+00 
0.000000e+00 0.000000e+00 0.000000e+00 
0.000000e+00 0.000000e+00 0.000000e+00 
0.000000e+00 0.000000e+00 0.000000e+00 
0.000000e+00 0.000000e+00 0.000000e+00 
0.000000e+00 0.000000e+00 0.000000e+00 
0.000000e+00 0.000000e+00 0.000000e+00 
0.000000e+00 0.000000e+00 0.000000e+00 
0.000000e+00 0.000000e+00 0.000000e+00 
0.000000e+00 0.000000e+00 0.000000e+00 
0.000000e+00 0.000000e+00 0.000000e+00 
0.000000e+00 0.000000e+00 0.000000e+00 
0.000000e+00 0.000000e+00 0.000000e+00 
0.000000e+00 0.000000e+00 0.000000e+00 
0.000000e+00 0.000000e+00 0.000000e+00 
0.000000e+00 0.000000e+00 0.000000e+00 
0.000000e+00 0.000000e+00 0.000000e+00 
0.000000e+00 0.000000e+00 0.000000e+00 
0.000000e+00 0.000000e+00 0.000000e+00 
0.000000e+00 0.000000e+00 0.000000e+00 
0.000000e+00 0.000000e+00 0.000000e+00 
0.000000e+00 0.000000e+00 0.000000e+00 
0.000000e+00 0.000000e+00 0.000000e+00 
0.000000e+00 0.000000e+00 0.000000e+00 
0.000000e+00 0.000000e+00 0.000000e+00 
0.000000e+00 0.000000e+00 0.000000e+00 
0.000000e+00 0.000000e+00 0.000000e+00 
0.000000e+00 0.000000e+00 0.000000e+00 
0.000000e+00 0.000000e+00 0.000000e+00 
0.000000e+00 0.000000e+00 0.000000e+00 
0.000000e+00 0.000000e+00 0.000000e+00 
0.000000e+00 0.000000e+00 0.000000e+00 
0.000000e+00 0.000000e+00 0.000000e+00 
0.000000e+00 0.000000e+00 0.000000e+00 
0.000000e+00 0.000000e+00 0.000000e+00 
0.000000e+00 0.000000e+00 0.000000e+00 
0.000000e+00 0.000000e+00 0.000000e+00 
0.000000e+00 0.000000e+00 0.000000e+00 
0.000000e+00 0.000000e+00 0.000000e+00 
0.000000e+00 0.000000e+00 0.000000e+00 
0.000000e+00 0.000000e+00 0.000000e+00 
0.000000e+00 0.000000e+00 0.000000e+00 
0.000000e+00 0.000000e+00 0.000000e+00 
0.000000e+00 0.000000e+00 0.000000e+00 
0.000000e+00 0.000000e+00 0.000000e+00 
0.000000e+00 0.000000e+00 0.000000e+00 
0.000000e+00 0.000000e+00 0.000000e+00 
0.000000e+00 0.000000e+00 0.000000e+00 
0.000000e+00 0.000000e+00 0.000000e+00 
0.000000e+00 0.000000e+00 0.000000e+00 
0.000000e+00 0.000000e+00 0.000000e+00 
0.000000e+00 0.000000e+00 0.000000e+00 
0.000000e+00 0.000000e+00 0.000000e+00 
0.000000e+00 0.000000e+00 0.000000e+00 
0.000000e+00 0.000000e+00 0.000000e+00 
0.000000e+00 0.000000e+00 0.000000e+00 
0.000000e+00 0.000000e+00 0.000000e+00 
0.000000e+00 0.000000e+00 0.000000e+00 
0.000000e+00 0.000000e+00 0.000000e+00 
0.000000e+00 0.000000e+00 0.000000e+00 
0.000000e+00 0.000000e+00 0.000000e+00 
0.000000e+00 0.000000e+00 0.000000e+00 
0.000000e+00 0.000000e+00 0.000000e+00 
0.000000e+00 0.000000e+00 0.000000e+00 
0.000000e+00 0.000000e+00 0.000000e+00 
0.000000e+00 0.000000e+00 0.000000e+00 
0.000000e+00 0.000000e+00 0.000000e+00 
0.000000e+00 0.000000e+00 0.000000e+00 
0.000000e+00 0.000000e+00 0.000000e+00 
0.000000e+00 0.000000e+00 0.000000e+00 
0.000000e+00 0.000000e+00 0.000000e+00 
0.000000e+00 0.000000e+00 0.000000e+00 
0.000000e+00 0.000000e+00 0.000000e+00 
0.000000e+00 0.000000e+00 0.000000e+00 
0.000000e+00 0.000000e+00 0.000000e+00 
0.000000e+00 0.000000e+00 0.000000e+00 
0.000000e+00 0.000000e+00 0.000000e+00 
0.000000e+00 0.000000e+00 0.000000e+00 
0.000000e+00 0.000000e+00 0.000000e+00 
0.000000e+00 0.000000e+00 0.000000e+00 
0.000000e+00 0.000000e+00 0.000000e+00 
0.000000e+00 0.000000e+00 0.000000e+00 
0.000000e+00 0.000000e+00 0.000000e+00 
0.000000e+00 0.000000e+00 0.000000e+00 
0.000000e+00 0.000000e+00 0.000000e+00 
0.000000e+00 0.000000e+00 0.000000e+00 
0.000000e+00 0.000000e+00 0.000000e+00 
0.000000e+00 0.000000e+00 0.000000e+00 
0.000000e+00 0.000000e+00 0.000000e+00 
0.000000e+00 0.000000e+00 0.000000e+00 
0.000000e+00 0.000000e+00 0.000000e+00 
0.000000e+00 0.000000e+00 0.000000e+00 
0.000000e+00 0.000000e+00 0.000000e+00 
0.000000e+00 0.000000e+00 0.000000e+00 
0.000000e+00 0.000000e+00 0.000000e+00 
0.000000e+00 0.000000e+00 0.000000e+00 
0.000000e+00 0.000000e+00 0.000000e+00 
0.000000e+00 0.000000e+00 0.000000e+00 
0.000000e+00 0.000000e+00 0.000000e+00 
0.000000e+00 0.000000e+00 0.000000e+00 
0.000000e+00 0.000000e+00 0.000000e+00 
0.000000e+00 0.000000e+00 0.000000e+00 
0.000000e+00 0.000000e+00 0.000000e+00 
0.000000e+00 0.000000e+00 0.000000e+00 
0.000000e+00 0.000000e+00 0.000000e+00 
0.000000e+00 0.000000e+00 0.000000e+00 
0.000000e+00 0.000000e+00 0.000000e+00 
0.000000e+00 0.000000e+00 0.000000e+00 
0.000000e+00 0.000000e+00 0.000000e+00 
0.000000e+00 0.000000e+00 0.000000e+00 
0.000000e+00 0.000000e+00 0.000000e+00 
0.000000e+00 0.000000e+00 0.000000e+00 
0.000000e+00 0.000000e+00 0.000000e+00 
0.000000e+00 0.000000e+00 0.000000e+00 
0.000000e+00 0.000000e+00 0.000000e+00 
0.000000e+00 0.000000e+00 0.000000e+00 
0.000000e+00 0.000000e+00 0.000000e+00 
0.000000e+00 0.000000e+00 0.000000e+00 
0.000000e+00 0.000000e+00 0.000000e+00 
0.000000e+00 0.000000e+00 0.000000e+00 
0.000000e+00 0.000000e+00 0.000000e+00 
0.000000e+00 0.000000e+00 0.000000e+00 
0.000000e+00 0.000000e+00 0.000000e+00 
0.000000e+00 0.000000e+00 0.000000e+00 
0.000000e+00 0.000000e+00 0.000000e+00 
0.000000e+00 0.000000e+00 0.000000e+00 
0.000000e+00 0.000000e+00 0.000000e+00 
0.000000e+00 0.000000e+00 0.000000e+00 
0.000000e+00 0.000000e+00 0.000000e+00 
0.000000e+00 0.000000e+00 0.000000e+00 
0.000000e+00 0.000000e+00 0.000000e+00 
0.000000e+00 0.000000e+00 0.000000e+00 
0.000000e+00 0.000000e+00 0.000000e+00 
0.000000e+00 0.000000e+00 0.000000e+00 
0.000000e+00 0.000000e+00 0.000000e+00 
0.000000e+00 0.000000e+00 0.000000e+00 
0.000000e+00 0.000000e+00 0.000000e+00 
0.000000e+00 0.000000e+00 0.000000e+00 
0.000000e+00 0.000000e+00 0.000000e+00 
0.000000e+00 0.000000e+00 0.000000e+00 
0.000000e+00 0.000000e+00 0.000000e+00 
0.000000e+00 0.000000e+00 0.000000e+00 
0.000000e+00 0.000000e+00 0.000000e+00 
0.000000e+00 0.000000e+00 0.000000e+00 
0.000000e+00 0.000000e+00 0.000000e+00 
0.000000e+00 0.000000e+00 0.000000e+00 
0.000000e+00 0.000000e+00 0.000000e+00 
0.000000e+00 0.000000e+00 0.000000e+00 
0.000000e+00 0.000000e+00 0.000000e+00 
0.000000e+00 0.000000e+00 0.000000e+00 
0.000000e+00 0.000000e+00 0.000000e+00 
0.000000e+00 0.000000e+00 0.000000e+00 
0.000000e+00 0.000000e+00 0.000000e+00 
0.000000e+00 0.000000e+00 0.000000e+00 
0.000000e+00 0.000000e+00 0.000000e+00 
0.000000e+00 0.000000e+00 0.000000e+00 
0.000000e+00 0.000000e+00 0.000000e+00 
0.000000e+00 0.000000e+00 0.000000e+00 
0.000000e+00 0.000000e+00 0.000000e+00 
0.000000e+00 0.000000e+00 0.000000e+00 
0.000000e+00 0.000000e+00 0.000000e+00 
0.000000e+00 0.000000e+00 0.000000e+00 
0.000000e+00 0.000000e+00 0.000000e+00 
0.000000e+00 0.000000e+00 0.000000e+00 
0.000000e+00 0.000000e+00 0.000000e+00 
0.000000e+00 0.000000e+00 0.000000e+00 
0.000000e+00 0.000000e+00 0.000000e+00 
0.000000e+00 0.000000e+00 0.000000e+00 
0.000000e+00 0.000000e+00 0.000000e+00 
0.000000e+00 0.000000e+00 0.000000e+00 
0.000000e+00 0.000000e+00 0.000000e+00 
0.000000e+00 0.000000e+00 0.000000e+00 
0.000000e+00 0.000000e+00 0.000000e+00 
0.000000e+00 0.000000e+00 0.000000e+00 
0.000000e+00 0.000000e+00 0.000000e+00 
0.000000e+00 0.000000e+00 0.000000e+00 
0.000000e+00 0.000000e+00 0.000000e+00 
0.000000e+00 0.000000e+00 0.000000e+00 
0.000000e+00 0.000000e+00 0.000000e+00 
0.000000e+00 0.000000e+00 0.000000e+00 
0.000000e+00 0.000000e+00 0.000000e+00 
0.000000e+00 0.000000e+00 0.000000e+00 
0.000000e+00 0.000000e+00 0.000000e+00 
0.000000e+00 0.000000e+00 0.000000e+00 
0.000000e+00 0.000000e+00 0.000000e+00 
0.000000e+00 0.000000e+00 0.000000e+00 
0.000000e+00 0.000000e+00 0.000000e+00 
0.000000e+00 0.000000e+00 0.000000e+00 
0.000000e+00 0.000000e+00 0.000000e+00 
0.000000e+00 0.000000e+00 0.000000e+00 
0.000000e+00 0.000000e+00 0.000000e+00 
0.000000e+00 0.000000e+00 0.000000e+00 
0.000000e+00 0.000000e+00 0.000000e+00 
0.000000e+00 0.000000e+00 0.000000e+00 
0.000000e+00 0.000000e+00 0.000000e+00 
0.000000e+00 0.000000e+00 0.000000e+00 
0.000000e+00 0.000000e+00 0.000000e+00 
0.000000e+00 0.000000e+00 0.000000e+00 
0.000000e+00 0.000000e+00 0.000000e+00 
0.000000e+00 0.000000e+00 0.000000e+00 
0.000000e+00 0.000000e+00 0.000000e+00 
0.000000e+00 0.000000e+00 0.000000e+00 
0.000000e+00 0.000000e+00 0.000000e+00 
0.000000e+00 0.000000e+00 0.000000e+00 
0.000000e+00 0.000000e+00 0.000000e+00 
0.000000e+00 0.000000e+00 0.000000e+00 
0.000000e+00 0.000000e+00 0.000000e+00 
0.000000e+00 0.000000e+00 0.000000e+00 
0.000000e+00 0.000000e+00 0.000000e+00 
0.000000e+00 0.000000e+00 0.000000e+00 
0.000000e+00 0.000000e+00 0.000000e+00 
0.000000e+00 0.000000e+00 0.000000e+00 
0.000000e+00 0.000000e+00 0.000000e+00 
0.000000e+00 0.000000e+00 0.000000e+00 
0.000000e+00 0.000000e+00 0.000000e+00 
0.000000e+00 0.000000e+00 0.000000e+00 
0.000000e+00 0.000000e+00 0.000000e+00 
0.000000e+00 0.000000e+00 0.000000e+00 
0.000000e+00 0.000000e+00 0.000000e+00 
0.000000e+00 0.000000e+00 0.000000e+00 
0.000000e+00 0.000000e+00 0.000000e+00 
0.000000e+00 0.000000e+00 0.000000e+00 
0.000000e+00 0.000000e+00 0.000000e+00 
0.000000e+00 0.000000e+00 0.000000e+00 
0.000000e+00 0.000000e+00 0.000000e+00 
0.000000e+00 0.000000e+00 0.000000e+00 
0.000000e+00 0.000000e+00 0.000000e+00 
0.000000e+00 0.000000e+00 0.000000e+00 
0.000000e+00 0.000000e+00 0.000000e+00 
0.000000e+00 0.000000e+00 0.000000e+00 
0.000000e+00 0.000000e+00 0.000000e+00 
0.000000e+00 0.000000e+00 0.000000e+00 
0.000000e+00 0.000000e+00 0.000000e+00 
0.000000e+00 0.000000e+00 0.000000e+00 
0.000000e+00 0.000000e+00 0.000000e+00 
0.000000e+00 0.000000e+00 0.000000e+00 
0.000000e+00 0.000000e+00 0.000000e+00 
0.000000e+00 0.000000e+00 0.000000e+00 
0.000000e+00 0.000000e+00 0.000000e+00 
0.000000e+00 0.000000e+00 0.000000e+00 
0.000000e+00 0.000000e+00 0.000000e+00 
0.000000e+00 0.000000e+00 0.000000e+00 
0.000000e+00 0.000000e+00 0.000000e+00 
0.000000e+00 0.000000e+00 0.000000e+00 
0.000000e+00 0.000000e+00 0.000000e+00 
0.000000e+00 0.000000e+00 0.000000e+00 
0.000000e+00 0.000000e+00 0.000000e+00 
0.000000e+00 0.000000e+00 0.000000e+00 
0.000000e+00 0.000000e+00 0.000000e+00 
0.000000e+00 0.000000e+00 0.000000e+00 
0.000000e+00 0.000000e+00 0.000000e+00 
0.000000e+00 0.000000e+00 0.000000e+00 
0.000000e+00 0.000000e+00 0.000000e+00 
0.000000e+00 0.000000e+00 0.000000e+00 
0.000000e+00 0.000000e+00 0.000000e+00 
0.000000e+00 0.000000e+00 0.000000e+00 
0.000000e+00 0.000000e+00 0.000000e+00 
0.000000e+00 0.000000e+00 0.000000e+00 
0.000000e+00 0.000000e+00 0.000000e+00 