# vtk DataFile Version 3.1
*description-name of input file* step:1201 
ASCII
DATASET UNSTRUCTURED_GRID
POINTS 1605 FLOAT
-7.104549e-09 -5.857716e-09 -1.172860e-10
-7.584176e-09 -4.517587e-09 -5.076462e-10
-6.285655e-09 -5.022414e-09 -7.061172e-10
-7.804554e-09 -4.090698e-09 2.032045e-09
-5.464139e-09 -5.911660e-09 9.590372e-11
1.206001e-08 7.156298e-09 -1.075521e-08
1.370195e-08 7.331359e-09 -1.083930e-08
1.300193e-08 6.043597e-09 -1.216630e-08
-6.005880e-09 -6.175650e-09 1.107448e-09
-6.307989e-09 -2.889285e-09 9.157235e-10
-4.373227e-09 -4.670004e-09 -1.059923e-09
-6.244371e-09 -2.924992e-09 -4.653306e-10
-5.474892e-09 -5.461762e-09 2.443511e-09
-5.823098e-09 -3.736235e-09 1.915833e-09
-5.107251e-09 -3.663812e-09 -1.514962e-09
-7.414521e-09 -4.307163e-09 3.261125e-09
-3.442251e-09 -5.371477e-09 2.891129e-10
-6.528448e-09 -1.267358e-09 2.382043e-10
-5.394273e-09 -1.400845e-09 -1.000679e-09
-3.950705e-09 -3.979048e-09 -3.472209e-09
-5.088606e-09 -2.718888e-09 -2.918383e-09
-4.097191e-09 -2.162496e-09 -3.768880e-09
-6.314241e-09 -2.600703e-09 2.461501e-09
-5.888233e-09 1.926080e-10 -2.256166e-09
-6.324197e-09 3.731136e-10 -8.892491e-10
-3.536053e-09 -4.697515e-09 1.935696e-09
-7.233238e-09 -1.531660e-09 1.214643e-09
-5.788550e-09 -3.581557e-09 4.137080e-09
-4.135525e-09 -1.984071e-09 -3.444936e-10
-7.729337e-09 -2.278133e-09 3.339155e-09
-2.387509e-09 -4.638309e-09 -2.067131e-09
-2.778411e-09 -3.177756e-09 -3.712835e-09
-2.152705e-09 -4.117163e-09 -3.189546e-09
-3.515435e-09 -3.385852e-09 -6.236638e-10
-5.901210e-09 -2.605953e-09 4.289210e-09
-4.169500e-09 -9.362917e-10 -2.248369e-09
-6.206092e-09 -6.577057e-10 2.121862e-09
-4.755380e-09 -2.807781e-10 4.802397e-10
-3.056887e-09 -2.014631e-09 -2.006965e-09
-3.988531e-09 -4.022565e-09 3.762554e-09
-4.807021e-09 2.844367e-10 -7.260144e-10
-3.924096e-09 8.408649e-10 -5.096944e-09
-3.976290e-09 4.176163e-10 -2.967806e-09
-4.734897e-09 1.110790e-09 -3.720841e-09
-4.159101e-09 -2.548204e-09 2.128065e-09
-1.739106e-09 -3.138866e-09 -5.767747e-10
-4.326075e-09 2.388384e-09 -4.157880e-09
-2.930478e-09 -1.592798e-09 -3.349543e-09
-3.189415e-09 9.717559e-11 -2.839460e-09
-1.612586e-09 -1.768044e-09 -3.459516e-09
-3.395729e-09 3.810328e-10 -8.205102e-10
-3.035516e-09 -1.936687e-09 2.151226e-10
-3.347409e-09 1.421348e-10 -4.751643e-09
-1.853424e-09 -2.337609e-09 -1.851363e-09
-3.924351e-09 -3.447337e-10 8.228730e-09
-2.197219e-09 -1.564409e-09 7.561781e-09
-1.719847e-09 2.261363e-10 7.330879e-09
-1.490886e-09 3.664691e-10 -4.206131e-09
-5.740917e-09 -3.275725e-09 5.979814e-09
-4.128318e-09 2.294663e-09 -2.418878e-09
-3.610504e-09 -2.861770e-09 3.686635e-09
-4.486209e-09 -3.302942e-10 2.564777e-09
-3.887307e-09 -1.412754e-09 1.219632e-09
-5.332983e-09 2.274470e-09 -2.343325e-10
-4.690778e-09 7.481921e-10 1.236591e-09
-6.530317e-09 1.945711e-09 1.770817e-09
-4.695460e-09 -4.495426e-09 5.748715e-09
-4.715208e-09 -3.720307e-09 6.906253e-09
-6.097399e-09 -1.742188e-09 6.654589e-09
-2.099134e-09 1.824418e-09 2.108747e-09
-2.509825e-11 2.386418e-09 3.731809e-09
-1.074796e-09 1.762016e-09 8.268447e-10
-4.693037e-09 7.243158e-10 -1.123109e-09
-3.093498e-09 -4.461230e-09 5.412651e-09
1.004637e-09 3.020535e-10 3.722876e-09
8.501328e-10 1.142594e-09 4.347984e-09
6.985830e-11 7.679489e-10 5.607533e-09
-5.464384e-09 3.362958e-09 1.034729e-09
-4.740292e-09 -1.696313e-09 5.422904e-09
-1.071636e-09 1.404134e-11 -1.318804e-09
-4.507153e-09 -2.327850e-09 4.615787e-09
-3.492123e-09 1.123309e-10 6.638518e-10
-2.201085e-09 -4.719530e-10 -3.242775e-11
-5.898826e-09 2.576161e-09 3.816511e-09
-2.426716e-09 -5.123619e-09 3.675074e-09
-2.881202e-09 2.754047e-09 -3.533679e-09
-2.216257e-09 -3.836944e-09 2.671286e-09
-5.682054e-09 -5.284104e-10 5.452140e-09
-2.502270e-09 1.616980e-09 -2.242261e-09
-4.171055e-09 -2.187275e-11 4.878117e-09
-2.890465e-09 -2.896188e-09 4.895857e-09
-5.762508e-09 -6.767503e-10 4.259170e-09
-3.308251e-09 -1.000031e-09 4.269930e-09
-6.037983e-10 -1.450590e-09 9.216085e-11
-4.423078e-09 3.432345e-09 2.436106e-09
-3.254231e-09 2.886159e-09 -8.176123e-10
-2.494784e-10 -1.540843e-09 -3.381422e-09
3.240288e-10 -2.719705e-09 -2.783186e-09
-3.998274e-09 -2.431060e-09 7.706031e-09
-5.489728e-09 -1.541741e-09 7.637029e-09
-5.473329e-09 1.301000e-10 7.656629e-09
9.283836e-10 2.141785e-09 3.198719e-09
-3.320085e-09 1.381571e-09 1.032689e-09
-3.613664e-09 2.907749e-09 5.818083e-10
-6.428071e-09 1.374167e-09 4.900112e-09
-4.497979e-09 7.936191e-11 3.679826e-09
-3.591108e-09 -2.584727e-09 6.195684e-09
3.757066e-11 -7.283851e-12 -3.285982e-09
-1.356728e-09 -2.801724e-09 3.589169e-09
-5.134603e-09 1.150564e-09 6.781274e-09
-3.544929e-09 8.068092e-10 3.365151e-09
-4.128123e-09 2.196214e-09 5.471858e-09
-4.327024e-09 1.828247e-09 3.117070e-09
-3.278642e-10 -3.889000e-09 2.686448e-09
8.023237e-10 -3.650153e-09 4.224924e-09
-4.125552e-09 2.310510e-09 1.900445e-09
3.704806e-10 -1.934960e-09 -4.819321e-10
-3.992136e-09 2.883729e-09 4.071692e-09
1.385883e-09 -9.903980e-10 -3.033696e-09
-7.003711e-10 -3.898809e-09 6.163725e-09
-8.463373e-10 -6.861141e-10 1.250400e-09
-2.193850e-09 -3.377292e-09 6.576484e-09
-1.892728e-09 -2.195524e-09 5.442144e-09
-1.580652e-09 -2.254358e-10 2.845727e-09
-1.371341e-09 -1.765258e-09 4.283113e-09
-2.627561e-09 1.416659e-09 3.706278e-09
1.609060e-09 -8.305718e-10 -1.282631e-09
5.019063e-10 8.809503e-10 -1.300021e-09
1.596778e-09 -6.584249e-10 5.994985e-09
-3.195167e-09 1.219153e-09 6.082507e-09
8.945234e-10 7.083668e-10 -3.175321e-09
9.797378e-10 -4.524519e-09 2.863454e-09
-7.540520e-10 -6.697101e-10 3.973983e-09
8.765066e-10 -1.048790e-09 -5.581669e-11
6.814948e-10 -3.616249e-09 5.451244e-09
-3.053777e-09 9.470064e-10 7.406941e-09
-2.348451e-09 2.208132e-09 5.646042e-09
-1.164339e-09 -1.896209e-09 6.555013e-09
2.275036e-09 -4.668612e-09 3.519951e-09
2.043537e-09 -3.772596e-09 2.398288e-09
-1.901890e-10 -1.553147e-09 2.700777e-09
-9.378783e-11 -2.689549e-09 7.007458e-09
1.346471e-09 -1.644550e-09 1.655048e-09
1.909799e-09 -1.883520e-10 -2.098236e-09
-9.510914e-10 1.690246e-09 3.572279e-09
-6.880715e-10 -1.446650e-09 7.878535e-09
1.680308e-09 5.146211e-10 9.128102e-12
2.446035e-09 -3.326539e-09 4.690004e-09
3.024661e-09 -4.030098e-09 3.476037e-09
1.941673e-09 1.494099e-09 -1.195728e-09
5.225044e-10 -2.392038e-09 6.115383e-09
-1.616049e-09 6.436598e-10 5.128663e-09
2.779027e-09 -2.313717e-10 7.524653e-10
2.497012e-09 3.065132e-10 -3.908008e-09
1.695435e-09 -2.657545e-09 4.873834e-09
3.415322e-09 -2.623466e-09 2.440619e-09
3.294766e-09 7.215744e-10 -2.163619e-09
2.651326e-09 2.357319e-09 -2.499755e-09
2.663618e-09 2.139755e-09 -3.949232e-09
3.549554e-09 9.185159e-10 -3.876423e-09
4.065982e-09 1.340340e-09 -5.231596e-09
1.289204e-09 -1.433777e-09 4.259540e-09
6.122758e-10 -9.245096e-10 7.242275e-09
2.540480e-09 -8.140214e-10 2.027516e-09
1.237869e-09 1.485766e-09 6.354443e-10
2.122992e-09 1.647364e-09 -1.977700e-10
4.561509e-09 1.674244e-09 -3.521333e-09
3.616466e-10 1.252440e-09 7.600997e-09
1.469614e-09 1.132172e-09 2.048469e-09
2.775886e-09 -2.224135e-09 3.517708e-09
2.129041e-09 -2.325172e-10 3.299998e-09
3.571237e-09 -2.217005e-10 1.986855e-09
4.453913e-09 2.819218e-09 -3.505122e-09
3.159651e-09 8.169962e-10 -7.855589e-10
3.351951e-09 1.643418e-09 -1.727536e-09
4.876702e-09 2.478108e-09 -5.049341e-09
3.397432e-09 8.774399e-10 7.721711e-10
5.083343e-09 2.052867e-09 -6.002820e-09
5.504350e-09 1.505692e-09 -4.650824e-09
3.724041e-09 -9.440048e-11 -3.097788e-10
3.246746e-09 8.695536e-10 2.697310e-09
6.541102e-09 1.407950e-09 -5.873150e-09
5.792469e-09 2.721252e-09 -3.970938e-09
7.160960e-09 3.013241e-09 -6.820996e-09
6.713316e-09 2.092653e-09 -5.050894e-09
7.400854e-09 2.107676e-09 -6.624949e-09
6.259690e-09 3.464197e-09 -4.614209e-09
7.568556e-09 3.336139e-09 -5.633392e-09
8.701099e-09 2.745774e-09 -5.824623e-09
8.432184e-09 2.822285e-09 -7.111146e-09
8.496472e-09 4.093163e-09 -6.924081e-09
9.470718e-09 3.042850e-09 -6.843031e-09
1.041259e-08 4.375574e-09 -7.844860e-09
1.019164e-08 4.877398e-09 -7.768730e-09
9.528227e-09 3.845531e-09 -6.055203e-09
1.109655e-08 4.167807e-09 -6.985351e-09
1.007569e-08 4.731473e-09 -6.251988e-09
1.129351e-08 4.983001e-09 -8.619528e-09
1.125121e-08 6.390770e-09 -7.623298e-09
1.100815e-08 5.403252e-09 -6.531010e-09
1.268703e-08 4.839135e-09 -8.296230e-09
1.129864e-08 6.669910e-09 -1.007676e-08
1.153755e-08 5.822714e-09 -1.040822e-08
1.120408e-08 6.171646e-09 -8.954062e-09
1.218390e-08 5.067289e-09 -9.118158e-09
1.159596e-08 5.880303e-09 -7.068182e-09
1.283640e-08 5.584433e-09 -7.938929e-09
1.341121e-08 5.149509e-09 -9.180195e-09
1.385151e-08 5.518724e-09 -1.065410e-08
1.190053e-08 6.900486e-09 -8.659165e-09
1.437215e-08 6.729294e-09 -1.012748e-08
1.369335e-08 6.281908e-09 -8.698330e-09
1.345515e-08 7.680577e-09 -9.066488e-09
2.032332e-09 1.570732e-09 -6.967491e-10
-4.356741e-09 -3.075684e-09 7.306142e-09
7.280907e-09 2.560458e-09 -6.722972e-09
7.364758e-09 3.174690e-09 -6.227194e-09
1.253097e-08 6.599947e-09 -1.146075e-08
2.317650e-09 1.181603e-09 7.038077e-10
-4.101375e-09 3.327347e-10 -7.732623e-10
8.134828e-09 3.040957e-09 -5.729008e-09
4.869612e-10 1.639651e-10 7.421636e-09
-2.848646e-10 4.474958e-10 -1.309413e-09
-3.123151e-09 -9.587276e-10 -2.423213e-09
7.796572e-09 2.917763e-09 -6.966071e-09
-4.431607e-09 1.702726e-09 -3.069860e-09
-5.610547e-09 1.346952e-09 1.503704e-09
-5.047928e-11 1.416420e-09 3.960132e-09
1.442991e-09 -1.046101e-09 5.127263e-09
1.030211e-08 4.626486e-09 -7.806795e-09
-4.528978e-09 -3.821430e-09 -2.493586e-09
-3.869608e-09 2.609130e-09 1.241126e-09
-3.250485e-09 -2.878979e-09 4.291246e-09
-5.997350e-09 2.654335e-09 1.402773e-09
1.105235e-08 4.785530e-09 -6.758180e-09
2.157525e-10 1.010194e-09 6.604265e-09
2.697385e-10 4.368332e-10 -2.293001e-09
4.125173e-10 1.764506e-09 4.039896e-09
-4.623722e-09 -2.012082e-09 5.019345e-09
-1.624728e-09 -2.498624e-09 4.515657e-09
-4.018371e-09 3.170047e-09 1.508957e-09
-2.195498e-09 -2.472900e-09 -3.586176e-09
1.335194e-08 6.687478e-09 -1.150280e-08
[...]
POINT_DATA 1605
VECTORS vector_force float
4.690000e+02 5.504615e+02 6.900536e+02 
-1.338393e+02 1.145140e+03 1.419887e+03 
-4.359653e+02 9.073517e+01 -2.736085e+01 
5.003520e+02 2.190934e+02 2.393783e+02 
6.241738e+02 5.277213e+02 -1.473799e+02 
3.815724e+02 5.586610e+02 -6.584876e+02 
4.545197e+02 5.130219e+02 -1.294605e+03 
1.087786e+03 6.050623e+02 -9.492677e+02 
-2.785507e+01 1.704447e+02 -4.444165e+02 
2.670351e+02 8.151720e+02 6.298566e+02 
1.160108e+01 2.865832e+02 -2.432981e+02 
4.854021e+02 -1.390638e+02 2.683070e+02 
-7.327493e+01 5.488439e+02 1.772353e+02 
-1.885576e+02 4.954618e+02 6.616693e+02 
-4.274037e+02 2.891597e+02 1.772940e+02 
-1.389905e+02 -4.416340e+02 7.001121e+02 
5.002593e+02 -4.538995e+02 -4.405657e+02 
-2.995661e+02 -2.741674e+02 4.269115e+02 
4.225604e+02 6.133774e+02 -3.430287e+02 
-1.071821e+03 9.639692e+02 7.111399e+01 
-1.767763e+02 3.826628e+02 6.970569e+02 
-6.706059e+02 5.446885e+02 1.423371e+03 
-3.958670e+02 -2.273342e+02 1.778495e+02 
5.041973e+02 1.109645e+03 -1.508424e+02 
-7.514737e+02 7.052315e+02 -1.339409e+01 
5.109036e+02 1.917548e+02 5.320954e+02 
-3.542485e+02 -3.754515e+02 -3.213425e+02 
-3.645439e+02 7.255479e+01 4.034764e+02 
3.904589e+01 8.400368e+02 3.506443e+02 
-6.847596e+02 -1.858140e+03 1.393084e+02 
1.004178e+03 1.057048e+03 -5.330070e+02 
-8.499087e+02 -5.054909e+02 -3.016230e+02 
8.058258e+02 3.426071e+02 3.569680e+02 
1.572013e+02 3.735506e+02 -3.086820e+02 
-5.402358e+02 1.033982e+02 3.204867e+02 
-6.243225e+02 -1.748437e+02 1.669877e+02 
-4.862240e+02 -2.815684e+02 -2.187733e+02 
1.554063e+02 -3.304404e+01 -9.151394e+01 
2.099526e+02 -4.792000e+01 5.620452e+02 
-2.647385e+02 6.210684e+02 7.136318e+02 
3.141864e+02 2.122140e+02 1.533719e+02 
1.345310e+03 -3.582612e+02 -2.196471e+02 
2.705428e+02 2.422244e+02 5.555867e+02 
4.806422e+00 2.100530e+02 -2.544883e+01 
1.232980e+02 -2.943991e+02 2.518474e+02 
-3.369188e+02 3.785449e+02 1.027783e+03 
1.189052e+02 -2.863202e+02 5.687602e+02 
6.468807e+02 -4.023157e+02 9.186929e+01 
-3.616252e+02 -3.529044e+02 -2.386089e+02 
-1.033256e+02 -6.439888e+00 -1.897283e+02 
-7.176796e+01 -7.859104e+01 2.725106e+02 
-6.841115e+01 2.086551e+02 4.508408e+02 
5.149763e+02 -4.062354e+02 5.378187e+02 
4.460736e+02 2.867880e+02 -3.176735e+02 
-4.281662e+02 -4.766088e+02 -1.942789e+02 
7.565373e+01 -4.020398e+02 -4.983034e+02 
-1.693683e+02 -7.623979e+02 -1.594950e+02 
1.033469e+03 -2.404936e+02 -7.018249e+02 
-2.726440e+02 1.334628e+02 -3.145062e+02 
9.518360e+01 1.974527e+01 -3.175156e+02 
1.356445e+01 9.806677e+02 -9.270166e+02 
-5.207973e+02 -7.614312e+01 -5.590987e+02 
2.651294e+02 1.221190e+02 5.985954e+02 
2.304607e+01 2.666745e+02 -1.002141e+03 
8.748315e+02 -1.684025e+02 3.162448e+02 
-1.531747e+01 1.584985e+01 7.218023e+02 
9.403796e+02 1.623533e+02 -6.566106e+02 
3.819543e+02 6.975990e+02 -8.612400e+02 
4.184653e+02 2.432846e+02 -2.671958e+02 
-7.265056e+02 -3.950474e+02 1.841953e+02 
-4.097823e+02 3.382758e+02 3.898411e+02 
4.270272e+02 -1.578248e+01 1.143066e+02 
7.589144e+01 2.508945e+02 -1.083607e+03 
-1.914329e+02 3.460033e+02 7.748480e+02 
3.356476e+02 8.173480e+01 -3.818657e+02 
2.941577e+01 4.406959e+02 4.976311e+01 
2.356941e+02 -3.985062e+01 4.091827e+01 
-3.096939e+02 1.234845e+02 1.586100e+02 
-4.937659e+02 4.275304e+02 3.764350e+02 
-3.317453e+02 2.248569e+02 1.940600e+02 
-3.150894e+02 4.062579e+02 2.963567e+01 
-5.111956e+01 -4.644879e+01 3.410784e+02 
2.730525e+02 -2.935279e+02 2.792473e+02 
1.298201e+02 -2.445675e+02 -4.369707e+02 
-1.076043e+03 4.786049e+02 -1.550510e+02 
-7.747846e+02 -1.862989e+02 2.913815e+01 
-8.691762e+02 -7.867226e+02 2.869561e+02 
-7.095821e+02 1.677635e+02 5.787054e+02 
7.923817e+02 4.364652e+02 2.240767e+02 
1.973399e+02 3.496365e+02 5.866037e+02 
2.916997e+02 -1.544686e+02 -4.850228e+02 
-6.244159e+02 -2.300955e+02 2.412123e+02 
-5.253894e+02 -4.835373e+01 -4.809451e+02 
-1.561948e+02 1.233659e+02 4.876543e+02 
3.935876e+02 -5.762686e+01 -3.200352e+02 
-4.513610e+01 1.835473e+02 -4.268937e+02 
7.036467e+02 3.294296e+01 4.457686e+02 
7.506674e+02 -5.568348e+01 -6.967646e+01 
6.221470e+02 -7.083003e+02 3.439659e+02 
8.679623e+01 3.667310e+02 -2.401117e+02 
3.312183e+02 5.340182e+02 2.384609e+02 
3.872883e+01 5.944591e+02 -4.070938e+02 
-2.485380e+02 -9.682003e+02 -5.618028e+02 
-7.560773e+01 -1.569907e+02 1.888098e+02 
5.488549e+02 4.405404e+02 3.594201e+02 
9.599532e+00 -2.202085e+02 8.834281e+02 
3.477601e+02 -1.632745e+02 -2.136596e+02 
4.886747e+01 -1.717594e+02 7.184583e+02 
-1.835964e+02 2.084590e+02 -6.530821e+00 
-4.198254e+02 2.130956e+02 9.946815e+02 
1.955069e+02 -1.052402e+02 6.365169e+02 
-1.957688e+02 5.059482e+02 1.156076e+02 
1.146561e+02 9.146343e+01 1.388710e+02 
3.118874e+01 -5.441793e+02 2.683872e+02 
2.657018e+02 -2.248973e+02 6.703817e+01 
4.293041e+02 5.254894e+02 -1.335826e+02 
8.601665e+01 4.426223e+02 -5.736224e+01 
-1.470222e+02 -2.774418e+02 -5.717771e+01 
1.023717e+03 1.328344e+02 -3.113475e+02 
1.319593e+02 5.812156e+02 -3.269688e+02 
-1.670335e+01 2.672020e+02 2.451796e+02 
7.684362e+02 2.813520e+02 2.714202e+02 
-5.021138e+02 1.150890e+02 1.807060e+02 
4.202436e+02 3.187342e+00 -4.102329e+02 
2.347347e+02 -5.391421e+01 1.074362e+02 
6.394628e+02 1.725272e+02 1.875208e+02 
-5.684973e+02 4.231032e+01 -3.506015e+02 
4.117352e+01 1.603248e+02 -1.038761e+02 
1.283154e+03 -4.284722e+02 -2.065913e+01 
-8.530618e+00 1.012460e+03 1.439569e-01 
2.167932e+02 6.030731e+02 3.651546e+01 
1.858976e+01 2.385136e+02 2.874844e+01 
2.455963e+02 3.678321e+02 -9.770491e+01 
3.885406e+02 7.156621e+01 -1.142693e+02 
-5.154136e+02 4.511330e+02 3.322696e+02 
4.139354e+02 -4.440750e+02 2.850352e+02 
3.934538e+02 4.468844e+02 1.133035e+03 
1.868411e+02 2.934312e+02 1.549820e+02 
-2.405010e+02 -6.269621e+00 3.458177e+02 
1.737990e+01 -6.167482e+02 -1.061276e+02 
3.585748e+02 9.040253e+01 -6.354243e+02 
1.693635e+02 2.629260e+01 4.939111e+01 
3.332675e+02 1.627806e+02 2.129743e+02 
-1.177109e+02 -2.156840e+02 -5.365044e+02 
-3.825251e+02 -1.374535e+02 5.485922e+01 
1.495748e+01 -1.083194e+03 7.306101e+02 
-4.135560e+02 7.396107e+01 -1.449079e+02 
-4.105267e+02 -8.976625e+01 9.163200e+01 
9.377270e+01 9.439409e+02 6.399121e+02 
6.201810e+02 -5.373009e+02 -8.157943e+02 
2.885001e+02 1.316313e+02 -9.273813e+01 
-3.763567e+02 -9.522089e+02 1.876449e+01 
-7.614623e+02 -4.427675e+02 -9.275010e+02 
5.016149e+02 2.539288e+02 -1.056879e+03 
4.246854e+02 -5.112238e+02 -7.305027e+01 
6.617361e+02 3.717474e+02 -5.627554e+01 
4.684624e+02 -8.512666e+02 -1.221595e+02 
-6.116007e+02 -1.951272e+02 -2.328667e+02 
-1.084107e+02 7.184745e+01 5.036623e+02 
5.987380e+02 5.576927e+02 -1.604625e+02 
5.448845e+02 9.465514e+02 -3.429135e+02 
3.097363e+02 -4.592194e+02 -2.546045e+02 
-1.122348e+02 -3.803402e+02 7.478351e+02 
3.030535e+02 3.100014e+01 -4.144273e+02 
-2.221508e+02 4.210083e+01 4.132872e+01 
3.306867e+02 -6.364628e+02 -2.533326e+02 
4.125123e+01 1.088483e+03 7.991820e+02 
-8.299602e+02 -9.955587e+01 1.460915e+03 
8.065198e+02 -4.472660e+01 -1.083174e+02 
6.733554e+02 -7.680784e+02 -1.514747e+02 
8.938575e+02 -2.287267e+02 9.391404e+01 
2.670973e+02 9.199645e+02 1.248921e+02 
1.199189e+03 5.989043e+02 1.492824e+02 
-8.157240e+01 -6.708572e+02 8.462095e+02 
5.449362e+02 -5.278816e+02 -1.269521e+02 
1.532487e+02 1.040341e+03 9.021069e-01 
-1.039282e+02 3.379267e+02 -1.033589e+02 
-1.535044e+03 2.577903e+02 4.520647e+02 
8.191115e+02 -8.232888e+02 3.129855e+01 
-1.657638e+03 -6.121810e+02 9.089557e+02 
-5.975192e+02 9.823340e+02 -4.302349e+02 
2.162961e+02 6.084444e+01 -9.688049e+02 
6.780457e+02 3.111567e+02 -9.215417e+02 
-1.768895e+02 4.823908e+01 3.917825e+02 
1.495371e+02 -9.464108e+02 -7.049959e+02 
-3.838880e+02 3.029610e+02 -3.717087e+01 
-5.197637e+02 -2.456620e+02 3.899060e+02 
-6.192855e+02 -2.761964e+02 1.031072e+03 
4.661058e+02 4.213256e+02 -3.208402e+02 
9.197169e+01 -1.147163e+03 8.101681e+02 
-5.688345e+02 -3.929131e+02 -2.261231e+02 
-1.336148e+03 3.569406e+02 4.756743e+02 
-5.241222e+02 3.433410e+02 1.474588e+02 
-6.189922e+02 1.244427e+03 -1.857890e+02 
-1.128456e+03 3.187253e+02 5.325219e+02 
-1.111255e+03 3.274499e+02 -7.588573e+02 
-5.827955e+02 5.864965e+02 4.363277e+02 
1.325844e+03 1.067764e+02 -6.264254e+02 
1.344060e+03 -7.408647e+01 -4.183670e+02 
-2.401987e+02 2.285982e+02 -2.712272e+02 
1.087687e+03 5.377401e+02 -7.120460e+02 
8.677357e+02 -3.357335e+02 1.713757e+02 
2.997615e+02 -1.431772e+02 3.993003e+01 
-1.739453e+02 4.658736e+02 4.607119e-01 
6.560773e+02 -2.118353e+02 -4.473370e+02 
6.047921e+02 3.204280e+02 -4.302649e+02 
7.841552e+02 5.443876e+02 -7.346517e+02 
1.525056e+02 1.218263e+02 -7.710255e+01 
2.735089e+02 7.165487e+02 -3.648644e+02 
-2.291855e+02 -2.808696e+01 -8.976615e+02 
-2.721285e+02 4.236430e+02 -5.170026e+02 
6.033275e+02 1.325085e+03 -1.265404e+02 
-6.651646e+01 2.962069e+02 8.565858e+00 
0.000000e+00 0.000000e+00 0.000000e+00 
0.000000e+00 0.000000e+00 0.000000e+00 
0.000000e+00 0.000000e+00 0.000000e+00 
0.000000e+00 0.000000e+00 0.000000e+00 
0.000000e+00 0.000000e+00 0.000000e+00 
0.000000e+00 0.000000e+00 0.000000e+00 
0.000000e+00 0.000000e+00 0.000000e+00 
0.000000e+00 0.000000e+00 0.000000e+00 
0.000000e+00 0.000000e+00 0.000000e+00 
0.000000e+00 0.000000e+00 0.000000e+00 
0.000000e+00 0.000000e+00 0.000000e+00 
0.000000e+00 0.000000e+00 0.000000e+00 
0.000000e+00 0.000000e+00 0.000000e+00 
0.000000e+00 0.000000e+00 0.000000e+00 
0.000000e+00 0.000000e+00 0.000000e+00 
0.000000e+00 0.000000e+00 0.000000e+00 
0.000000e+00 0.000000e+00 0.000000e+00 
0.000000e+00 0.000000e+00 0.000000e+00 
0.000000e+00 0.000000e+00 0.000000e+00 
0.000000e+00 0.000000e+00 0.000000e+00 
0.000000e+00 0.000000e+00 0.000000e+00 
0.000000e+00 0.000000e+00 0.000000e+00 
0.000000e+00 0.000000e+00 0.000000e+00 
0.000000e+00 0.000000e+00 0.000000e+00 
0.000000e+00 0.000000e+00 0.000000e+00 
0.000000e+00 0.000000e+00 0.000000e+00 
0.000000e+00 0.000000e+00 0.000000e+00 
0.000000e+00 0.000000e+00 0.000000e+00 
0.000000e+00 0.000000e+00 0.000000e+00 
0.000000e+00 0.000000e+00 0.000000e+00 
0.000000e+00 0.000000e+00 0.000000e+00 
0.000000e+00 0.000000e+00 0.000000e+00 
0.000000e+00 0.000000e+00 0.000000e+00 
0.000000e+00 0.000000e+00 0.000000e+00 
0.000000e+00 0.000000e+00 0.000000e+00 
0.000000e+00 0.000000e+00 0.000000e+00 
0.000000e+00 0.000000e+00 0.000000e+00 
0.000000e+00 0.000000e+00 0.000000e+00 
0.000000e+00 0.000000e+00 0.000000e+00 
0.000000e+00 0.000000e+00 0.000000e+00 
0.000000e+00 0.000000e+00 0.000000e+00 
0.000000e+00 0.000000e+00 0.000000e+00 
0.000000e+00 0.000000e+00 0.000000e+00 
0.000000e+00 0.000000e+00 0.000000e+00 
0.000000e+00 0.000000e+00 0.000000e+00 
0.000000e+00 0.000000e+00 0.000000e+00 
0.000000e+00 0.000000e+00 0.000000e+00 
0.000000e+00 0.000000e+00 0.000000e+00 
0.000000e+00 0.000000e+00 0.000000e+00 
0.000000e+00 0.000000e+00 0.000000e+00 
0.000000e+00 0.000000e+00 0.000000e+00 
0.000000e+00 0.000000e+00 0.000000e+00 
0.000000e+00 0.000000e+00 0.000000e+00 
0.000000e+00 0.000000e+00 0.000000e+00 
0.000000e+00 0.000000e+00 0.000000e+00 
0.000000e+00 0.000000e+00 0.000000e+00 
0.000000e+00 0.000000e+00 0.000000e+00 
0.000000e+00 0.000000e+00 0.000000e+00 
0.000000e+00 0.000000e+00 0.000000e+00 
0.000000e+00 0.000000e+00 0.000000e+00 
0.000000e+00 0.000000e+00 0.000000e+00 
0.000000e+00 0.000000e+00 0.000000e+00 
0.000000e+00 0.000000e+00 0.000000e+00 
0.000000e+00 0.000000e+00 0.000000e+00 
0.000000e+00 0.000000e+00 0.000000e+00 
0.000000e+00 0.000000e+00 0.000000e+00 
0.000000e+00 0.000000e+00 0.000000e+00 
0.000000e+00 0.000000e+00 0.000000e+00 
0.000000e+00 0.000000e+00 0.000000e+00 
0.000000e+00 0.000000e+00 0.000000e+00 
0.000000e+00 0.000000e+00 0.000000e+00 
0.000000e+00 0.000000e+00 0.000000e+00 
0.000000e+00 0.000000e+00 0.000000e+00 
0.000000e+00 0.000000e+00 0.000000e+00 
0.000000e+00 0.000000e+00 0.000000e+00 
0.000000e+00 0.000000e+00 0.000000e+00 
0.000000e+00 0.000000e+00 0.000000e+00 
0.000000e+00 0.000000e+00 0.000000e+00 
0.000000e+00 0.000000e+00 0.000000e+00 
0.000000e+00 0.000000e+00 0.000000e+00 
0.000000e+00 0.000000e+00 0.000000e+00 
0.000000e+00 0.000000e+00 0.000000e+00 
0.000000e+00 0.000000e+00 0.000000e+00 
0.000000e+00 0.000000e+00 0.000000e+00 
0.000000e+00 0.000000e+00 0.000000e+00 
0.000000e+00 0.000000e+00 0.000000e+00 
0.000000e+00 0.000000e+00 0.000000e+00 
0.000000e+00 0.000000e+00 0.000000e+00 
0.000000e+00 0.000000e+00 0.000000e+00 
0.000000e+00 0.000000e+00 0.000000e+00 
0.000000e+00 0.000000e+00 0.000000e+00 
0.000000e+00 0.000000e+00 0.000000e+00 
0.000000e+00 0.000000e+00 0.000000e+00 
0.000000e+00 0.000000e+00 0.000000e+00 
0.000000e+00 0.000000e+00 0.000000e+00 
0.000000e+00 0.000000e+00 0.000000e+00 
0.000000e+00 0.000000e+00 0.000000e+00 
0.000000e+00 0.000000e+00 0.000000e+00 
0.000000e+00 0.000000e+00 0.000000e+00 
0.000000e+00 0.000000e+00 0.000000e+00 
0.000000e+00 0.000000e+00 0.000000e+00 
0.000000e+00 0.000000e+00 0.000000e+00 
0.000000e+00 0.000000e+00 0.000000e+00 
0.000000e+00 0.000000e+00 0.000000e+00 
0.000000e+00 0.000000e+00 0.000000e+00 
0.000000e+00 0.000000e+00 0.000000e+00 
0.000000e+00 0.000000e+00 0.000000e+00 
0.000000e+00 0.000000e+00 0.000000e+00 
0.000000e+00 0.000000e+00 0.000000e+00 
0.000000e+00 0.000000e+00 0.000000e+00 
0.000000e+00 0.000000e+00 0.000000e+00 
0.000000e+00 0.000000e+00 0.000000e+00 
0.000000e+00 0.000000e+00 0.000000e+00 
0.000000e+00 0.000000e+00 0.000000e+00 
0.000000e+00 0.000000e+00 0.000000e+00 
0.000000e+00 0.000000e+00 0.000000e+00 
0.000000e+00 0.000000e+00 0.000000e+00 
0.000000e+00 0.000000e+00 0.000000e+00 
0.000000e+00 0.000000e+00 0.000000e+00 
0.000000e+00 0.000000e+00 0.000000e+00 
0.000000e+00 0.000000e+00 0.000000e+00 
0.000000e+00 0.000000e+00 0.000000e+00 
0.000000e+00 0.000000e+00 0.000000e+00 
0.000000e+00 0.000000e+00 0.000000e+00 
0.000000e+00 0.000000e+00 0.000000e+00 
0.000000e+00 0.000000e+00 0.000000e+00 
0.000000e+00 0.000000e+00 0.000000e+00 
0.000000e+00 0.000000e+00 0.000000e+00 
0.000000e+00 0.000000e+00 0.000000e+00 
0.000000e+00 0.000000e+00 0.000000e+00 
0.000000e+00 0.000000e+00 0.000000e+00 
0.000000e+00 0.000000e+00 0.000000e+00 
0.000000e+00 0.000000e+00 0.000000e+00 
0.000000e+00 0.000000e+00 0.000000e+00 
0.000000e+00 0.000000e+00 0.000000e+00 
0.000000e+00 0.000000e+00 0.000000e+00 
0.000000e+00 0.000000e+00 0.000000e+00 
0.000000e+00 0.000000e+00 0.000000e+00 
0.000000e+00 0.000000e+00 0.000000e+00 
0.000000e+00 0.000000e+00 0.000000e+00 
0.000000e+00 0.000000e+00 0.000000e+00 
0.000000e+00 0.000000e+00 0.000000e+00 
0.000000e+00 0.000000e+00 0.000000e+00 
0.000000e+00 0.000000e+00 0.000000e+00 
0.000000e+00 0.000000e+00 0.000000e+00 
0.000000e+00 0.000000e+00 0.000000e+00 
0.000000e+00 0.000000e+00 0.000000e+00 
0.000000e+00 0.000000e+00 0.000000e+00 
0.000000e+00 0.000000e+00 0.000000e+00 
0.000000e+00 0.000000e+00 0.000000e+00 
0.000000e+00 0.000000e+00 0.000000e+00 
0.000000e+00 0.000000e+00 0.000000e+00 
0.000000e+00 0.000000e+00 0.000000e+00 
0.000000e+00 0.000000e+00 0.000000e+00 
0.000000e+00 0.000000e+00 0.000000e+00 
0.000000e+00 0.000000e+00 0.000000e+00 
0.000000e+00 0.000000e+00 0.000000e+00 
0.000000e+00 0.000000e+00 0.000000e+00 
0.000000e+00 0.000000e+00 0.000000e+00 
0.000000e+00 0.000000e+00 0.000000e+00 
0.000000e+00 0.000000e+00 0.000000e+00 
0.000000e+00 0.000000e+00 0.000000e+00 
0.000000e+00 0.000000e+00 0.000000e+00 
0.000000e+00 0.000000e+00 0.000000e+00 
0.000000e+00 0.000000e+00 0.000000e+00 
0.000000e+00 0.000000e+00 0.000000e+00 
0.000000e+00 0.000000e+00 0.000000e+00 
0.000000e+00 0.000000e+00 0.000000e+00 
0.000000e+00 0.000000e+00 0.000000e+00 
0.000000e+00 0.000000e+00 0.000000e+00 
0.000000e+00 0.000000e+00 0.000000e+00 
0.000000e+00 0.000000e+00 0.000000e+00 
0.000000e+00 0.000000e+00 0.000000e+00 
0.000000e+00 0.000000e+00 0.000000e+00 
0.000000e+00 0.000000e+00 0.000000e+00 
0.000000e+00 0.000000e+00 0.000000e+00 
0.000000e+00 0.000000e+00 0.000000e+00 
0.000000e+00 0.000000e+00 0.000000e+00 
0.000000e+00 0.000000e+00 0.000000e+00 
0.000000e+00 0.000000e+00 0.000000e+00 
0.000000e+00 0.000000e+00 0.000000e+00 
0.000000e+00 0.000000e+00 0.000000e+00 
0.000000e+00 0.000000e+00 0.000000e+00 
0.000000e+00 0.000000e+00 0.000000e+00 
0.000000e+00 0.000000e+00 0.000000e+00 
0.000000e+00 0.000000e+00 0.000000e+00 
0.000000e+00 0.000000e+00 0.000000e+00 
0.000000e+00 0.000000e+00 0.000000e+00 
0.000000e+00 0.000000e+00 0.000000e+00 
0.000000e+00 0.000000e+00 0.000000e+00 
0.000000e+00 0.000000e+00 0.000000e+00 
0.000000e+00 0.000000e+00 0.000000e+00 
0.000000e+00 0.000000e+00 0.000000e+00 
0.000000e+00 0.000000e+00 0.000000e+00 
0.000000e+00 0.000000e+00 0.000000e+00 
0.000000e+00 0.000000e+00 0.000000e+00 
0.000000e+00 0.000000e+00 0.000000e+00 
0.000000e+00 0.000000e+00 0.000000e+00 
0.000000e+00 0.000000e+00 0.000000e+00 
0.000000e+00 0.000000e+00 0.000000e+00 
0.000000e+00 0.000000e+00 0.000000e+00 
0.000000e+00 0.000000e+00 0.000000e+00 
0.000000e+00 0.000000e+00 0.000000e+00 
0.000000e+00 0.000000e+00 0.000000e+00 
0.000000e+00 0.000000e+00 0.000000e+00 
0.000000e+00 0.000000e+00 0.000000e+00 
0.000000e+00 0.000000e+00 0.000000e+00 
0.000000e+00 0.000000e+00 0.000000e+00 
0.000000e+00 0.000000e+00 0.000000e+00 
0.000000e+00 0.000000e+00 0.000000e+00 
0.000000e+00 0.000000e+00 0.000000e+00 
0.000000e+00 0.000000e+00 0.000000e+00 
0.000000e+00 0.000000e+00 0.000000e+00 
0.000000e+00 0.000000e+00 0.000000e+00 
0.000000e+00 0.000000e+00 0.000000e+00 
0.000000e+00 0.000000e+00 0.000000e+00 
0.000000e+00 0.000000e+00 0.000000e+00 
0.000000e+00 0.000000e+00 0.000000e+00 
0.000000e+00 0.000000e+00 0.000000e+00 
0.000000e+00 0.000000e+00 0.000000e+00 
0.000000e+00 0.000000e+00 0.000000e+00 
0.000000e+00 0.000000e+00 0.000000e+00 
0.000000e+00 0.000000e+00 0.000000e+00 
0.000000e+00 0.000000e+00 0.000000e+00 
0.000000e+00 0.000000e+00 0.000000e+00 
0.000000e+00 0.000000e+00 0.000000e+00 
0.000000e+00 0.000000e+00 0.000000e+00 
0.000000e+00 0.000000e+00 0.000000e+00 
0.000000e+00 0.000000e+00 0.000000e+00 
0.000000e+00 0.000000e+00 0.000000e+00 
0.000000e+00 0.000000e+00 0.000000e+00 
0.000000e+00 0.000000e+00 0.000000e+00 
0.000000e+00 0.000000e+00 0.000000e+00 
0.000000e+00 0.000000e+00 0.000000e+00 
0.000000e+00 0.000000e+00 0.000000e+00 
0.000000e+00 0.000000e+00 0.000000e+00 
0.000000e+00 0.000000e+00 0.000000e+00 
0.000000e+00 0.000000e+00 0.000000e+00 
0.000000e+00 0.000000e+00 0.000000e+00 
0.000000e+00 0.000000e+00 0.000000e+00 
0.000000e+00 0.000000e+00 0.000000e+00 
0.000000e+00 0.000000e+00 0.000000e+00 
0.000000e+00 0.000000e+00 0.000000e+00 
0.000000e+00 0.000000e+00 0.000000e+00 
0.000000e+00 0.000000e+00 0.000000e+00 
0.000000e+00 0.000000e+00 0.000000e+00 
0.000000e+00 0.000000e+00 0.000000e+00 
0.000000e+00 0.000000e+00 0.000000e+00 
0.000000e+00 0.000000e+00 0.000000e+00 
0.000000e+00 0.000000e+00 0.000000e+00 
0.000000e+00 0.000000e+00 0.000000e+00 
0.000000e+00 0.000000e+00 0.000000e+00 
0.000000e+00 0.000000e+00 0.000000e+00 
0.000000e+00 0.000000e+00 0.000000e+00 
0.000000e+00 0.000000e+00 0.000000e+00 
0.000000e+00 0.000000e+00 0.000000e+00 
0.000000e+00 0.000000e+00 0.000000e+00 
0.000000e+00 0.000000e+00 0.000000e+00 
0.000000e+00 0.000000e+00 0.000000e+00 
0.000000e+00 0.000000e+00 0.000000e+00 
0.000000e+00 0.000000e+00 0.000000e+00 
0.000000e+00 0.000000e+00 0.000000e+00 
0.000000e+00 0.000000e+00 0.000000e+00 
0.000000e+00 0.000000e+00 0.000000e+00 
0.000000e+00 0.000000e+00 0.000000e+00 
0.000000e+00 0.000000e+00 0.000000e+00 
0.000000e+00 0.000000e+00 0.000000e+00 
0.000000e+00 0.000000e+00 0.000000e+00 
0.000000e+00 0.000000e+00 0.000000e+00 
0.000000e+00 0.000000e+00 0.000000e+00 
0.000000e+00 0.000000e+00 0.000000e+00 
0.000000e+00 0.000000e+00 0.000000e+00 
0.000000e+00 0.000000e+00 0.000000e+00 
0.000000e+00 0.000000e+00 0.000000e+00 
0.000000e+00 0.000000e+00 0.000000e+00 
0.000000e+00 0.000000e+00 0.000000e+00 
0.000000e+00 0.000000e+00 0.000000e+00 
0.000000e+00 0.000000e+00 0.000000e+00 
0.000000e+00 0.000000e+00 0.000000e+00 