# vtk DataFile Version 3.1
*description-name of input file* step:2201 
ASCII
DATASET UNSTRUCTURED_GRID
POINTS 1605 FLOAT
-7.134135e-09 -5.509753e-09 -3.051001e-10
-7.771490e-09 -4.488901e-09 -7.946195e-10
-6.259422e-09 -4.808380e-09 -7.574793e-10
-7.767848e-09 -4.184828e-09 2.068218e-09
-5.552635e-09 -6.015519e-09 -2.330446e-10
1.196767e-08 6.804109e-09 -1.073692e-08
1.353486e-08 7.216529e-09 -1.100598e-08
1.293560e-08 5.841165e-09 -1.201205e-08
-6.336817e-09 -6.226717e-09 7.257491e-10
-6.363489e-09 -2.809849e-09 8.712751e-10
-4.526846e-09 -4.484782e-09 -1.097257e-09
-6.193189e-09 -2.820631e-09 -3.246128e-10
-5.620424e-09 -5.278438e-09 2.208681e-09
-6.016240e-09 -3.684845e-09 1.742914e-09
-5.197979e-09 -3.514098e-09 -1.681348e-09
-7.474652e-09 -4.268378e-09 3.126819e-09
-3.673084e-09 -5.544605e-09 4.929603e-11
-6.560883e-09 -1.091339e-09 3.346530e-11
-5.465730e-09 -1.392111e-09 -8.206049e-10
-3.908706e-09 -3.922224e-09 -3.298467e-09
-5.162396e-09 -2.471315e-09 -3.066867e-09
-4.111940e-09 -1.783079e-09 -3.867268e-09
-6.471933e-09 -2.418461e-09 2.302473e-09
-5.559572e-09 1.752514e-11 -2.359018e-09
-6.245526e-09 4.444835e-10 -9.169297e-10
-3.602887e-09 -4.805866e-09 1.930779e-09
-7.343602e-09 -1.132177e-09 1.329110e-09
-5.861829e-09 -3.356378e-09 4.071338e-09
-4.207596e-09 -2.210985e-09 -3.810407e-10
-8.053322e-09 -2.241164e-09 3.084818e-09
-2.453329e-09 -4.376849e-09 -2.338100e-09
-2.940006e-09 -3.207802e-09 -4.037025e-09
-2.460034e-09 -4.168445e-09 -3.506329e-09
-3.591946e-09 -3.491879e-09 -6.246244e-10
-6.078141e-09 -2.306135e-09 4.048849e-09
-4.141543e-09 -8.649534e-10 -2.179307e-09
-5.809972e-09 -6.206652e-10 2.098958e-09
-4.719944e-09 -3.083432e-10 5.889418e-10
-2.896768e-09 -2.005647e-09 -2.017377e-09
-3.905969e-09 -3.926224e-09 3.754103e-09
-4.702135e-09 2.145073e-11 -5.744687e-10
-3.879893e-09 5.579502e-10 -5.091389e-09
-3.945859e-09 5.214333e-10 -2.920398e-09
-4.803577e-09 9.046369e-10 -3.667854e-09
-4.269246e-09 -2.538214e-09 2.125805e-09
-1.771896e-09 -3.284878e-09 -6.290441e-10
-4.429458e-09 2.337323e-09 -4.381675e-09
-2.657097e-09 -1.423030e-09 -3.216755e-09
-2.985367e-09 2.079432e-10 -2.567128e-09
-1.421620e-09 -1.793707e-09 -3.179311e-09
-3.272922e-09 3.951766e-10 -7.914198e-10
-3.181305e-09 -1.991614e-09 2.201446e-10
-3.445417e-09 -6.591784e-11 -4.965952e-09
-1.802393e-09 -2.405930e-09 -1.691117e-09
-3.800736e-09 -5.502178e-10 8.292751e-09
-2.227213e-09 -1.767360e-09 7.512615e-09
-1.849171e-09 4.276914e-10 7.345139e-09
-1.683414e-09 6.999183e-10 -3.966320e-09
-5.782931e-09 -3.116505e-09 6.174453e-09
-4.437057e-09 2.352449e-09 -2.543385e-09
-3.678570e-09 -2.838353e-09 3.885802e-09
-4.475762e-09 -3.778612e-10 2.646072e-09
-3.918234e-09 -1.423249e-09 1.426266e-09
-5.625038e-09 2.345761e-09 -3.721128e-10
-5.008433e-09 7.412642e-10 1.018494e-09
-6.523880e-09 1.871919e-09 1.956434e-09
-4.878105e-09 -4.572562e-09 5.909287e-09
-4.562259e-09 -3.816217e-09 7.044642e-09
-6.318590e-09 -1.470437e-09 6.822753e-09
-2.047538e-09 1.771665e-09 1.995040e-09
-1.491208e-10 2.022155e-09 4.022697e-09
-1.102149e-09 1.817685e-09 7.144311e-10
-4.615513e-09 5.949509e-10 -8.938693e-10
-3.052160e-09 -4.437676e-09 5.398143e-09
9.738123e-10 2.908943e-10 3.711805e-09
9.562335e-10 1.118687e-09 4.340325e-09
-6.410679e-11 7.625447e-10 5.609228e-09
-5.690680e-09 3.105322e-09 1.431048e-09
-4.777988e-09 -1.588496e-09 5.420231e-09
-1.164811e-09 -1.521022e-10 -1.262457e-09
-4.637610e-09 -2.146842e-09 4.608557e-09
-3.489641e-09 2.916504e-10 7.602985e-10
-2.153239e-09 -5.484358e-10 2.843585e-11
-5.745672e-09 2.295109e-09 3.893405e-09
-2.458088e-09 -4.991544e-09 3.572751e-09
-3.061177e-09 2.578832e-09 -3.932765e-09
-2.388046e-09 -3.598044e-09 2.751782e-09
-5.746787e-09 -5.302474e-10 5.373452e-09
-2.938021e-09 1.890136e-09 -2.214237e-09
-4.206095e-09 -1.065919e-10 4.772352e-09
-2.834346e-09 -2.925873e-09 5.163727e-09
-5.712489e-09 -7.334542e-10 4.088075e-09
-3.272528e-09 -1.089776e-09 4.261181e-09
-3.188004e-10 -1.549776e-09 1.342222e-10
-4.336997e-09 3.288819e-09 2.478676e-09
-3.604224e-09 2.843184e-09 -7.657730e-10
-2.014412e-10 -1.342987e-09 -3.279438e-09
3.393232e-10 -2.701235e-09 -2.684162e-09
-3.998962e-09 -2.331954e-09 7.930185e-09
-5.293837e-09 -1.451283e-09 7.610454e-09
-5.296222e-09 2.337036e-10 7.736758e-09
7.272287e-10 2.224890e-09 3.224653e-09
-3.671164e-09 1.418967e-09 8.215712e-10
-4.047416e-09 2.927595e-09 2.988720e-10
-6.416249e-09 1.166640e-09 4.685145e-09
-4.311745e-09 -8.346581e-11 3.532445e-09
-3.745559e-09 -2.672769e-09 6.354228e-09
-1.164236e-10 -1.134227e-11 -3.071782e-09
-1.413036e-09 -2.643507e-09 3.704520e-09
-4.937965e-09 1.422779e-09 6.740164e-09
-3.553651e-09 7.845479e-10 3.290200e-09
-4.176370e-09 2.299515e-09 5.456828e-09
-4.227399e-09 1.912759e-09 2.980852e-09
-3.787992e-10 -3.995048e-09 2.716891e-09
8.171729e-10 -3.615000e-09 4.473902e-09
-4.074003e-09 2.234548e-09 2.044878e-09
4.755333e-10 -1.817402e-09 -5.280229e-10
-4.142553e-09 2.763452e-09 4.032184e-09
1.526433e-09 -8.968237e-10 -3.237468e-09
-7.483448e-10 -3.910290e-09 6.293347e-09
-6.621605e-10 -6.289789e-10 1.262462e-09
-2.290032e-09 -3.246063e-09 6.404005e-09
-1.982299e-09 -2.278811e-09 5.606034e-09
-1.675000e-09 -3.160263e-10 2.846364e-09
-1.376920e-09 -1.687874e-09 4.387278e-09
-2.698078e-09 1.265504e-09 3.693095e-09
1.844163e-09 -1.062118e-09 -1.414242e-09
7.474483e-10 7.207194e-10 -1.282915e-09
1.409214e-09 -6.616944e-10 5.766759e-09
-3.183292e-09 1.273963e-09 5.940226e-09
8.548615e-10 6.058169e-10 -3.251690e-09
1.024318e-09 -4.746387e-09 3.029899e-09
-8.400516e-10 -7.521433e-10 3.941159e-09
1.039942e-09 -1.187672e-09 -1.888123e-10
5.998411e-10 -3.490233e-09 5.631149e-09
-3.075827e-09 9.031030e-10 7.344425e-09
-2.408116e-09 2.199143e-09 5.705995e-09
-1.227480e-09 -2.001170e-09 6.676972e-09
2.153491e-09 -4.742138e-09 3.668939e-09
1.979357e-09 -3.667682e-09 2.569620e-09
-3.772872e-10 -1.555977e-09 2.834601e-09
-3.374248e-10 -2.660200e-09 7.075071e-09
1.425901e-09 -1.692497e-09 1.740665e-09
2.047255e-09 -2.446731e-10 -2.193859e-09
-1.164880e-09 1.572594e-09 3.644944e-09
-8.881617e-10 -1.224982e-09 8.057652e-09
1.814511e-09 4.253794e-10 -1.224434e-10
2.750188e-09 -3.625157e-09 4.728119e-09
3.292176e-09 -4.077673e-09 3.578616e-09
1.785710e-09 1.280322e-09 -1.242032e-09
4.708873e-10 -2.397895e-09 6.452705e-09
-1.741450e-09 8.272687e-10 5.176643e-09
2.946171e-09 -4.307088e-10 9.371315e-10
2.395766e-09 4.991867e-10 -4.113340e-09
1.791121e-09 -2.784920e-09 5.002130e-09
3.794415e-09 -2.715074e-09 2.498513e-09
3.565887e-09 3.614394e-10 -2.298352e-09
2.797338e-09 2.397065e-09 -2.597441e-09
2.689518e-09 2.436697e-09 -4.246163e-09
3.426362e-09 1.058203e-09 -4.042972e-09
4.434619e-09 1.856113e-09 -5.431775e-09
1.135121e-09 -1.544436e-09 4.260586e-09
6.333257e-10 -7.026854e-10 7.461341e-09
2.720518e-09 -6.902040e-10 2.002096e-09
1.442995e-09 1.383679e-09 5.713109e-10
2.104498e-09 1.372562e-09 -2.069349e-10
4.645034e-09 1.668706e-09 -3.716674e-09
2.357753e-10 1.380513e-09 7.323342e-09
1.381814e-09 1.143061e-09 2.127782e-09
2.955437e-09 -2.319199e-09 3.475652e-09
2.125332e-09 -9.476164e-11 3.398135e-09
3.575182e-09 -7.111592e-10 2.076172e-09
4.286504e-09 2.658462e-09 -3.698043e-09
3.134649e-09 8.629196e-10 -8.704556e-10
3.265579e-09 1.431412e-09 -1.999931e-09
4.833637e-09 2.770307e-09 -5.143797e-09
3.399284e-09 1.113057e-09 9.311109e-10
5.223735e-09 1.955286e-09 -5.967188e-09
5.376516e-09 1.683341e-09 -4.640207e-09
3.713797e-09 -1.002854e-10 -3.741694e-11
3.242328e-09 9.646751e-10 2.777220e-09
6.512180e-09 1.477058e-09 -5.683176e-09
5.946735e-09 2.800335e-09 -4.166063e-09
7.456374e-09 3.033645e-09 -6.830871e-09
6.871767e-09 2.193359e-09 -5.076661e-09
7.452978e-09 2.086020e-09 -6.288266e-09
6.199910e-09 3.675673e-09 -5.027318e-09
7.191450e-09 3.176171e-09 -5.454839e-09
8.562528e-09 2.877199e-09 -5.785814e-09
8.505338e-09 2.887519e-09 -7.073759e-09
8.583361e-09 4.249469e-09 -6.572045e-09
9.647553e-09 2.995916e-09 -6.557709e-09
1.024725e-08 4.562065e-09 -7.809464e-09
1.011671e-08 5.119041e-09 -7.664000e-09
9.496876e-09 4.055292e-09 -5.845316e-09
1.115177e-08 4.609318e-09 -6.626912e-09
1.028808e-08 4.959866e-09 -6.193039e-09
1.128959e-08 5.063465e-09 -8.471533e-09
1.128594e-08 6.659700e-09 -7.549835e-09
1.128077e-08 5.508041e-09 -6.453717e-09
1.287395e-08 4.877788e-09 -8.259667e-09
1.138373e-08 6.398082e-09 -9.977221e-09
1.168068e-08 5.905217e-09 -1.024935e-08
1.114724e-08 5.919212e-09 -8.864915e-09
1.234779e-08 5.080392e-09 -9.080497e-09
1.157283e-08 5.980208e-09 -7.019144e-09
1.281349e-08 5.545576e-09 -8.108480e-09
1.341302e-08 5.089287e-09 -8.953728e-09
1.401972e-08 5.064596e-09 -1.058166e-08
1.170733e-08 6.874115e-09 -8.679829e-09
1.422830e-08 6.654944e-09 -1.039769e-08
1.419797e-08 6.364692e-09 -8.956781e-09
1.379702e-08 7.817740e-09 -9.229670e-09
1.945104e-09 1.326442e-09 -7.244835e-10
-4.280610e-09 -3.074085e-09 7.487413e-09
7.454676e-09 2.559832e-09 -6.559569e-09
7.323912e-09 3.104908e-09 -6.142855e-09
1.245163e-08 6.322637e-09 -1.137448e-08
2.421140e-09 1.248368e-09 7.512109e-10
-3.987528e-09 2.083137e-10 -6.829443e-10
7.876989e-09 3.026685e-09 -5.620327e-09
4.345505e-10 3.389138e-10 7.392341e-09
-2.086815e-10 2.843086e-10 -1.272686e-09
-2.941068e-09 -8.988519e-10 -2.292252e-09
7.980856e-09 2.960582e-09 -6.952315e-09
-4.620317e-09 1.628543e-09 -3.105620e-09
-5.766157e-09 1.306592e-09 1.487464e-09
-1.043233e-10 1.345641e-09 3.992635e-09
1.272167e-09 -1.103065e-09 5.013673e-09
1.018198e-08 4.840553e-09 -7.736732e-09
-4.553343e-09 -3.718161e-09 -2.489908e-09
-4.060710e-09 2.581071e-09 1.171875e-09
-3.256458e-09 -2.882113e-09 4.524764e-09
-6.107280e-09 2.488621e-09 1.693741e-09
1.121627e-08 5.058679e-09 -6.540314e-09
8.583424e-11 1.071529e-09 6.466285e-09
3.155123e-10 3.546886e-10 -2.177348e-09
4.035564e-10 1.570421e-09 4.181511e-09
-4.707799e-09 -1.867669e-09 5.014394e-09
-1.697667e-09 -2.461159e-09 4.655277e-09
-4.192207e-09 3.108207e-09 1.388774e-09
-2.180813e-09 -2.500754e-09 -3.608168e-09
1.323523e-08 6.528847e-09 -1.150901e-08
[...]
POINT_DATA 1605
VECTORS vector_force float
-1.013354e+02 -1.321826e+02 4.443579e+02 
-5.069296e+02 -5.611425e+02 -8.079614e+01 
3.251556e+02 4.802772e+02 -2.534792e+02 
4.581488e+01 -7.850286e+02 3.801105e+02 
-2.026213e+02 -2.362283e+02 -9.242351e+02 
2.138828e+02 2.636127e+02 -3.691464e+02 
-4.761741e+02 -3.865483e+02 2.068087e+02 
-3.521243e+02 7.915525e+02 4.378583e+02 
4.686508e+02 -2.924548e+01 -6.146354e+02 
-3.021167e+02 -2.221808e+02 -5.018873e+02 
1.711313e+02 5.855322e+02 -6.859385e+01 
9.381909e+02 4.239363e+01 -8.741786e+02 
2.929580e+02 -4.319368e+02 -4.495549e+02 
-3.802030e+01 -2.929753e+02 3.252952e+02 
2.145580e+01 8.595845e+02 1.745399e+01 
3.393751e+02 -1.080937e+03 3.384045e+02 
-4.670127e+02 4.249143e+02 -8.343706e+02 
-9.806048e+02 2.165225e+02 4.804779e+02 
-6.478900e+02 8.245334e+02 2.381250e+02 
-6.223548e+01 1.152678e+02 2.692837e+01 
5.133310e+02 5.797619e+02 -3.691549e+02 
6.993781e+02 8.974275e+01 -9.854168e+02 
-8.025880e+02 -2.043648e+02 -4.657589e+00 
-8.074975e+01 -1.773065e+02 -6.501318e+02 
-2.088265e+02 5.864307e+02 5.268895e+02 
9.473870e+02 9.278973e+01 -3.881105e+02 
-1.187964e+03 -1.031241e+03 3.059605e+02 
3.700283e+02 -4.546177e+02 1.163752e+02 
-5.889937e+02 4.858419e+02 5.523246e+01 
2.813510e+02 -4.759910e+02 7.604930e+02 
-6.074837e+02 3.677138e+02 -3.370411e+02 
5.510740e+02 2.144087e+02 -4.709708e+02 
7.720676e+02 -6.280710e+02 -3.038444e+01 
-5.332450e+02 6.278758e+02 4.484998e+02 
2.990611e+02 3.280354e+01 5.675242e+01 
-5.012149e+02 5.301875e+02 -5.169410e+02 
-3.738399e+02 -2.659802e+02 6.583967e+02 
-8.197342e+01 4.076737e+02 1.315493e+02 
-3.824825e+00 -2.268157e+02 -5.929422e+02 
2.434070e+02 2.651793e+02 -2.696647e+02 
-9.770171e+02 -1.219844e+02 -4.293144e+02 
-9.929835e+02 5.965352e+02 -4.239783e+02 
1.451781e+01 -2.515429e+02 2.381756e+02 
5.527413e+02 1.416985e+02 -1.811518e+02 
2.332443e+02 1.499850e+02 3.132328e+02 
-1.536090e+02 -5.007535e+02 -2.399610e+02 
-1.973703e+01 -4.590386e+02 2.194032e+02 
9.079133e+02 -5.295149e+02 -2.270096e+02 
-7.275955e+02 -6.560115e+02 2.601093e+02 
1.573307e+02 -4.748093e+01 -9.241233e+02 
-1.076207e+02 -6.478945e+02 3.705463e+02 
-6.579692e+02 4.466276e+02 -5.389196e+02 
-6.483124e+02 3.728334e+02 -3.543730e+02 
1.165334e+02 -4.840371e+02 -7.148197e+02 
-4.684921e+02 6.023804e+02 -1.218516e+02 
-4.705298e+02 -3.432897e+02 -1.260471e+02 
3.006659e+02 3.394455e+02 -1.938601e+02 
2.637876e+02 1.054720e+03 6.440988e+02 
2.316525e+02 -2.154085e+02 2.348258e+02 
2.743496e+02 -1.858698e+03 -1.359719e+02 
1.926956e+02 7.375318e+01 -3.800052e+02 
-5.504532e+02 3.130475e+01 4.365295e+00 
-3.124981e+02 3.161333e+02 -1.694233e+02 
-3.198764e+02 -1.033065e+03 -5.855631e+01 
1.295075e+03 -5.090672e+02 9.344525e+02 
6.051218e+02 5.138511e+02 4.370708e+02 
2.124898e+02 5.389858e+02 2.683161e+01 
2.963147e+02 -3.743127e+01 1.886679e+00 
-2.907072e+02 6.929077e+02 4.901664e+02 
-3.490474e+02 -8.689948e+02 -5.506870e+01 
3.031861e+02 3.687445e+01 6.576236e+02 
-1.166787e+02 -1.697142e+03 -4.045263e+01 
3.286016e+02 -1.365330e+03 8.691108e+02 
-4.962145e+02 -2.272450e+02 -1.589141e+02 
-3.433176e+01 -1.127035e+02 -9.530332e+01 
-1.269249e+03 -6.035420e+02 -2.786041e+01 
-4.570975e+02 -1.427214e+02 -8.013934e+01 
4.293829e+02 -7.373556e+02 -8.298164e+02 
2.154211e+02 1.798225e+02 4.892022e+02 
-2.144493e+02 3.169920e+02 -2.764537e+02 
-5.531881e+02 4.413551e+02 -5.184126e+02 
-2.630040e+02 -1.127485e+03 -4.071616e+02 
1.904215e+02 -1.076996e+02 -9.587060e+01 
5.740236e+02 -1.135547e+01 8.812611e+02 
-5.558276e+02 -4.591085e+02 -8.680344e+01 
-1.697029e+01 2.852716e+02 -5.000152e+02 
-8.169635e+01 -5.752204e+02 -6.071749e+02 
1.681682e+02 -2.380929e+02 2.633757e+02 
5.708140e+02 1.716684e+00 -3.381461e+02 
4.448507e+02 -1.752206e+02 3.710055e+02 
9.547627e+01 2.421012e+02 3.046711e+01 
-2.755597e+01 -6.404592e+01 -2.870516e+02 
-7.303638e+02 -5.995307e+02 8.017204e+01 
-6.164424e+02 -2.839781e+02 -2.734152e+02 
8.499876e+02 3.894397e+02 1.378926e+02 
-4.754038e+02 -3.922297e+02 -1.971206e+02 
3.261691e+02 1.483952e+02 -1.043043e+03 
-6.529725e+02 -1.149238e+02 1.006808e+02 
-3.873769e+02 3.179151e+02 -2.458552e+02 
-7.392236e+02 2.800170e+02 9.130934e+01 
7.022331e+01 8.083449e+02 -5.782055e+02 
5.749684e+01 -1.524484e+02 -5.145666e+02 
-2.139358e+02 -6.455885e+02 -3.389109e+02 
9.696745e+02 -6.799740e+00 -9.087190e+02 
1.384338e+02 -4.045565e+02 -4.389172e+02 
4.591835e+02 -1.251209e+03 4.082320e+02 
9.867341e+01 -3.895177e+02 3.300130e+02 
1.307718e+03 6.134835e+02 4.679432e+01 
1.868871e+02 -4.626395e+02 -5.110172e+02 
1.410056e+03 -6.301385e+01 -8.994974e+02 
3.565137e+02 -5.772542e+02 1.677934e+02 
3.407326e+02 -1.689189e+02 -2.078526e+02 
3.251759e+02 -3.850707e+02 -2.822486e+02 
-3.120976e+02 -3.632996e+01 -2.995006e+02 
6.593182e+02 3.705245e+02 1.324664e+00 
1.024320e+02 2.661183e+02 -2.999319e+02 
-4.213658e+02 -7.804191e+02 -5.862956e+02 
2.581169e+02 -7.652343e+02 -1.105662e+01 
6.510187e+02 -5.535344e+02 -1.331445e+02 
-2.513442e+02 -9.850109e+00 5.359530e+02 
-5.178754e+02 -7.809708e+02 5.966880e+01 
-3.114959e+02 -4.432320e+02 -4.608281e+02 
-3.300596e+02 4.208607e+01 -2.167708e+02 
-4.530846e+02 -2.111742e+02 2.694936e+02 
-3.561529e+02 1.726149e+01 7.866532e+00 
2.961945e+02 -1.854762e+02 6.344331e+01 
4.362097e+02 2.028379e+02 -4.311361e+01 
3.483924e+02 -6.497487e+02 2.644733e+02 
-6.409387e+02 -5.722324e+02 -6.335075e+02 
7.640836e+01 7.287840e+01 -4.009230e+02 
1.131102e+02 6.866118e+01 -9.312645e+01 
-5.337360e+02 6.881668e+00 -2.544914e+02 
3.957466e+02 -8.512063e+02 2.144810e+02 
5.428858e+02 -6.348885e+02 5.708019e+02 
1.404825e+01 6.809753e+01 6.696755e+02 
1.192481e+03 8.070115e+02 4.918606e+02 
8.166120e+02 4.011712e+02 9.245295e+02 
1.036772e+02 -1.528663e+02 -2.252908e+02 
-8.828237e+02 3.337808e+02 4.290862e+01 
-1.042305e+02 1.942840e+02 2.411224e+02 
-5.339091e+01 -4.192129e+02 2.208934e+02 
-3.566254e+02 -1.246710e+03 -1.326724e+03 
-2.504228e+02 -4.182487e+02 -3.475608e+02 
3.082526e+02 2.869568e+00 -5.124993e+02 
3.463638e+02 -3.500542e+02 -5.590492e+01 
1.772415e+02 1.528465e+02 -3.631506e+02 
2.114920e+02 2.107895e+02 4.081094e+02 
-1.155986e+01 -3.440624e+02 -3.691592e+02 
-5.719090e+02 -3.660061e+02 5.997452e+02 
5.129245e+02 -2.241619e+02 5.399377e+02 
-7.935924e+01 -4.852771e+02 5.234741e+02 
-3.809831e+01 -2.988991e+02 -3.919298e+01 
7.395375e+02 1.089001e+02 -2.584611e+02 
-6.163235e+02 4.434582e+02 -1.002233e+03 
-3.114741e+01 2.293673e+02 -7.023279e+02 
-3.191921e+02 -1.265179e+03 -1.381473e+02 
5.390861e+02 4.504636e+02 -9.856692e+02 
7.134115e+02 2.020771e+02 8.982370e+02 
-7.213446e+02 6.428692e+02 1.770595e+02 
-4.679531e+02 -5.139188e+00 -1.361414e+02 
-6.171536e+01 1.023533e+03 -2.798745e+02 
6.962771e+01 5.965637e+00 -2.403993e+02 
5.080403e+02 -5.244599e+02 -3.874755e+02 
1.582196e+02 -3.594308e+02 -3.897241e+02 
-4.157643e+02 -8.480173e+02 -1.413730e+02 
-1.170325e+02 -2.881525e+01 -7.270118e+02 
-3.592937e+02 2.379256e+02 1.914347e+02 
-1.197258e+03 -6.724858e+02 1.952354e+02 
-4.611492e+02 -1.924382e+02 -2.882861e+02 
7.741952e+01 -3.337294e+02 -7.253399e+02 
-9.784531e+01 -1.570319e+02 6.855575e+02 
4.604405e+02 -2.379156e+02 3.938060e+01 
-6.075574e+02 -1.938498e+02 8.921280e+02 
3.577107e+02 1.607390e+02 3.223933e+02 
1.348996e+03 -5.769507e+02 -7.054084e+02 
-8.662337e+02 4.092421e+02 2.690465e+02 
6.635598e+02 1.070229e+02 -8.187914e+01 
-9.498757e+02 2.512823e+02 1.189317e+02 
-1.333355e+02 5.042512e+02 9.183415e+02 
8.264972e+02 -3.916274e+01 4.113547e+02 
-4.635225e+02 -4.450257e+02 1.859353e+03 
-5.867565e+02 -5.540506e+02 8.389855e+02 
-1.069632e+03 -6.376884e+02 -2.429315e+02 
-8.134161e+02 -6.021963e+02 -4.897900e+02 
-4.033867e+02 -8.827584e+02 -8.832837e+01 
3.217519e+02 3.045388e+01 1.041642e+03 
-1.722269e+03 -1.029585e+03 9.142155e+02 
-3.910490e+02 2.088384e+02 -2.989329e+02 
-6.525658e+02 4.515683e+02 1.082090e+03 
-8.811793e+01 1.552219e+02 1.091070e+02 
-9.402480e+02 -2.264228e+02 -2.139457e+01 
-3.805361e+02 -3.019815e+02 -2.458639e+02 
1.695818e+02 7.197546e+02 -9.013970e+02 
1.017204e+02 9.582006e+02 2.630442e+02 
-2.954221e+02 -1.220950e+03 -6.118062e+02 
-2.395057e+02 -5.323509e+02 3.391997e+02 
5.112739e+01 -1.101704e+03 -2.175800e+02 
6.822325e+00 7.043159e+02 1.703686e+02 
7.364110e+01 -1.271630e+02 2.915124e+02 
1.704178e+02 -4.877204e+01 -5.412079e+01 
-4.589713e+02 8.058827e+02 7.479771e+02 
6.803972e+02 -8.441834e+02 -1.574098e+02 
4.508514e+02 1.729771e+02 4.098692e+02 
7.693064e+02 -2.498372e+02 2.652537e+02 
-3.614224e+02 -6.609721e+02 -3.634277e+02 
-4.977017e+02 -3.989709e+02 -3.320073e+02 
4.855552e+02 9.665768e+02 -7.149692e+00 
4.164662e+02 -8.644874e+02 -5.881777e+02 
-1.479119e+02 -5.123150e+02 -4.545390e+02 
4.894752e+02 -4.093734e+02 -2.596769e+02 
1.185556e+02 6.321628e+01 2.671900e+02 
2.932187e+02 -7.389964e+02 1.109789e+02 
4.314873e+02 -6.138836e+02 -7.736872e+02 
0.000000e+00 0.000000e+00 0.000000e+00 
0.000000e+00 0.000000e+00 0.000000e+00 
0.000000e+00 0.000000e+00 0.000000e+00 
0.000000e+00 0.000000e+00 0.000000e+00 
0.000000e+00 0.000000e+00 0.000000e+00 
0.000000e+00 0.000000e+00 0.000000e+00 
0.000000e+00 0.000000e+00 0.000000e+00 
0.000000e+00 0.000000e+00 0.000000e+00 
0.000000e+00 0.000000e+00 0.000000e+00 
0.000000e+00 0.000000e+00 0.000000e+00 
0.000000e+00 0.000000e+00 0.000000e+00 
0.000000e+00 0.000000e+00 0.000000e+00 
0.000000e+00 0.000000e+00 0.000000e+00 
0.000000e+00 0.000000e+00 0.000000e+00 
0.000000e+00 0.000000e+00 0.000000e+00 
0.000000e+00 0.000000e+00 0.000000e+00 
0.000000e+00 0.000000e+00 0.000000e+00 
0.000000e+00 0.000000e+00 0.000000e+00 
0.000000e+00 0.000000e+00 0.000000e+00 
0.000000e+00 0.000000e+00 0.000000e+00 
0.000000e+00 0.000000e+00 0.000000e+00 
0.000000e+00 0.000000e+00 0.000000e+00 
0.000000e+00 0.000000e+00 0.000000e+00 
0.000000e+00 0.000000e+00 0.000000e+00 
0.000000e+00 0.000000e+00 0.000000e+00 
0.000000e+00 0.000000e+00 0.000000e+00 
0.000000e+00 0.000000e+00 0.000000e+00 
0.000000e+00 0.000000e+00 0.000000e+00 
0.000000e+00 0.000000e+00 0.000000e+00 
0.000000e+00 0.000000e+00 0.000000e+00 
0.000000e+00 0.000000e+00 0.000000e+00 
0.000000e+00 0.000000e+00 0.000000e+00 
0.000000e+00 0.000000e+00 0.000000e+00 
0.000000e+00 0.000000e+00 0.000000e+00 
0.000000e+00 0.000000e+00 0.000000e+00 
0.000000e+00 0.000000e+00 0.000000e+00 
0.000000e+00 0.000000e+00 0.000000e+00 
0.000000e+00 0.000000e+00 0.000000e+00 
0.000000e+00 0.000000e+00 0.000000e+00 
0.000000e+00 0.000000e+00 0.000000e+00 
0.000000e+00 0.000000e+00 0.000000e+00 
0.000000e+00 0.000000e+00 0.000000e+00 
0.000000e+00 0.000000e+00 0.000000e+00 
0.000000e+00 0.000000e+00 0.000000e+00 
0.000000e+00 0.000000e+00 0.000000e+00 
0.000000e+00 0.000000e+00 0.000000e+00 
0.000000e+00 0.000000e+00 0.000000e+00 
0.000000e+00 0.000000e+00 0.000000e+00 
0.000000e+00 0.000000e+00 0.000000e+00 
0.000000e+00 0.000000e+00 0.000000e+00 
0.000000e+00 0.000000e+00 0.000000e+00 
0.000000e+00 0.000000e+00 0.000000e+00 
0.000000e+00 0.000000e+00 0.000000e+00 
0.000000e+00 0.000000e+00 0.000000e+00 
0.000000e+00 0.000000e+00 0.000000e+00 
0.000000e+00 0.000000e+00 0.000000e+00 
0.000000e+00 0.000000e+00 0.000000e+00 
0.000000e+00 0.000000e+00 0.000000e+00 
0.000000e+00 0.000000e+00 0.000000e+00 
0.000000e+00 0.000000e+00 0.000000e+00 
0.000000e+00 0.000000e+00 0.000000e+00 
0.000000e+00 0.000000e+00 0.000000e+00 
0.000000e+00 0.000000e+00 0.000000e+00 
0.000000e+00 0.000000e+00 0.000000e+00 
0.000000e+00 0.000000e+00 0.000000e+00 
0.000000e+00 0.000000e+00 0.000000e+00 
0.000000e+00 0.000000e+00 0.000000e+00 
0.000000e+00 0.000000e+00 0.000000e+00 
0.000000e+00 0.000000e+00 0.000000e+00 
0.000000e+00 0.000000e+00 0.000000e+00 
0.000000e+00 0.000000e+00 0.000000e+00 
0.000000e+00 0.000000e+00 0.000000e+00 
0.000000e+00 0.000000e+00 0.000000e+00 
0.000000e+00 0.000000e+00 0.000000e+00 
0.000000e+00 0.000000e+00 0.000000e+00 
0.000000e+00 0.000000e+00 0.000000e+00 
0.000000e+00 0.000000e+00 0.000000e+00 
0.000000e+00 0.000000e+00 0.000000e+00 
0.000000e+00 0.000000e+00 0.000000e+00 
0.000000e+00 0.000000e+00 0.000000e+00 
0.000000e+00 0.000000e+00 0.000000e+00 
0.000000e+00 0.000000e+00 0.000000e+00 
0.000000e+00 0.000000e+00 0.000000e+00 
0.000000e+00 0.000000e+00 0.000000e+00 
0.000000e+00 0.000000e+00 0.000000e+00 
0.000000e+00 0.000000e+00 0.000000e+00 
0.000000e+00 0.000000e+00 0.000000e+00 
0.000000e+00 0.000000e+00 0.000000e+00 
0.000000e+00 0.000000e+00 0.000000e+00 
0.000000e+00 0.000000e+00 0.000000e+00 
0.000000e+00 0.000000e+00 0.000000e+00 
0.000000e+00 0.000000e+00 0.000000e+00 
0.000000e+00 0.000000e+00 0.000000e+00 
0.000000e+00 0.000000e+00 0.000000e+00 
0.000000e+00 0.000000e+00 0.000000e+00 
0.000000e+00 0.000000e+00 0.000000e+00 
0.000000e+00 0.000000e+00 0.000000e+00 
0.000000e+00 0.000000e+00 0.000000e+00 
0.000000e+00 0.000000e+00 0.000000e+00 
0.000000e+00 0.000000e+00 0.000000e+00 
0.000000e+00 0.000000e+00 0.000000e+00 
0.000000e+00 0.000000e+00 0.000000e+00 
0.000000e+00 0.000000e+00 0.000000e+00 
0.000000e+00 0.000000e+00 0.000000e+00 
0.000000e+00 0.000000e+00 0.000000e+00 
0.000000e+00 0.000000e+00 0.000000e+00 
0.000000e+00 0.000000e+00 0.000000e+00 
0.000000e+00 0.000000e+00 0.000000e+00 
0.000000e+00 0.000000e+00 0.000000e+00 
0.000000e+00 0.000000e+00 0.000000e+00 
0.000000e+00 0.000000e+00 0.000000e+00 
0.000000e+00 0.000000e+00 0.000000e+00 
0.000000e+00 0.000000e+00 0.000000e+00 
0.000000e+00 0.000000e+00 0.000000e+00 
0.000000e+00 0.000000e+00 0.000000e+00 
0.000000e+00 0.000000e+00 0.000000e+00 
0.000000e+00 0.000000e+00 0.000000e+00 
0.000000e+00 0.000000e+00 0.000000e+00 
0.000000e+00 0.000000e+00 0.000000e+00 
0.000000e+00 0.000000e+00 0.000000e+00 
0.000000e+00 0.000000e+00 0.000000e+00 
0.000000e+00 0.000000e+00 0.000000e+00 
0.000000e+00 0.000000e+00 0.000000e+00 
0.000000e+00 0.000000e+00 0.000000e+00 
0.000000e+00 0.000000e+00 0.000000e+00 
0.000000e+00 0.000000e+00 0.000000e+00 
0.000000e+00 0.000000e+00 0.000000e+00 
0.000000e+00 0.000000e+00 0.000000e+00 
0.000000e+00 0.000000e+00 0.000000e+00 
0.000000e+00 0.000000e+00 0.000000e+00 
0.000000e+00 0.000000e+00 0.000000e+00 
0.000000e+00 0.000000e+00 0.000000e+00 
0.000000e+00 0.000000e+00 0.000000e+00 
0.000000e+00 0.000000e+00 0.000000e+00 
0.000000e+00 0.000000e+00 0.000000e+00 
0.000000e+00 0.000000e+00 0.000000e+00 
0.000000e+00 0.000000e+00 0.000000e+00 
0.000000e+00 0.000000e+00 0.000000e+00 
0.000000e+00 0.000000e+00 0.000000e+00 
0.000000e+00 0.000000e+00 0.000000e+00 
0.000000e+00 0.000000e+00 0.000000e+00 
0.000000e+00 0.000000e+00 0.000000e+00 
0.000000e+00 0.000000e+00 0.000000e+00 
0.000000e+00 0.000000e+00 0.000000e+00 
0.000000e+00 0.000000e+00 0.000000e+00 
0.000000e+00 0.000000e+00 0.000000e+00 
0.000000e+00 0.000000e+00 0.000000e+00 
0.000000e+00 0.000000e+00 0.000000e+00 
0.000000e+00 0.000000e+00 0.000000e+00 
0.000000e+00 0.000000e+00 0.000000e+00 
0.000000e+00 0.000000e+00 0.000000e+00 
0.000000e+00 0.000000e+00 0.000000e+00 
0.000000e+00 0.000000e+00 0.000000e+00 
0.000000e+00 0.000000e+00 0.000000e+00 
0.000000e+00 0.000000e+00 0.000000e+00 
0.000000e+00 0.000000e+00 0.000000e+00 
0.000000e+00 0.000000e+00 0.000000e+00 
0.000000e+00 0.000000e+00 0.000000e+00 
0.000000e+00 0.000000e+00 0.000000e+00 
0.000000e+00 0.000000e+00 0.000000e+00 
0.000000e+00 0.000000e+00 0.000000e+00 
0.000000e+00 0.000000e+00 0.000000e+00 
0.000000e+00 0.000000e+00 0.000000e+00 
0.000000e+00 0.000000e+00 0.000000e+00 
0.000000e+00 0.000000e+00 0.000000e+00 
0.000000e+00 0.000000e+00 0.000000e+00 
0.000000e+00 0.000000e+00 0.000000e+00 
0.000000e+00 0.000000e+00 0.000000e+00 
0.000000e+00 0.000000e+00 0.000000e+00 
0.000000e+00 0.000000e+00 0.000000e+00 
0.000000e+00 0.000000e+00 0.000000e+00 
0.000000e+00 0.000000e+00 0.000000e+00 
0.000000e+00 0.000000e+00 0.000000e+00 
0.000000e+00 0.000000e+00 0.000000e+00 
0.000000e+00 0.000000e+00 0.000000e+00 
0.000000e+00 0.000000e+00 0.000000e+00 
0.000000e+00 0.000000e+00 0.000000e+00 
0.000000e+00 0.000000e+00 0.000000e+00 
0.000000e+00 0.000000e+00 0.000000e+00 
0.000000e+00 0.000000e+00 0.000000e+00 
0.000000e+00 0.000000e+00 0.000000e+00 
0.000000e+00 0.000000e+00 0.000000e+00 
0.000000e+00 0.000000e+00 0.000000e+00 
0.000000e+00 0.000000e+00 0.000000e+00 
0.000000e+00 0.000000e+00 0.000000e+00 
0.000000e+00 0.000000e+00 0.000000e+00 
0.000000e+00 0.000000e+00 0.000000e+00 
0.000000e+00 0.000000e+00 0.000000e+00 
0.000000e+00 0.000000e+00 0.000000e+00 
0.000000e+00 0.000000e+00 0.000000e+00 
0.000000e+00 0.000000e+00 0.000000e+00 
0.000000e+00 0.000000e+00 0.000000e+00 
0.000000e+00 0.000000e+00 0.000000e+00 
0.000000e+00 0.000000e+00 0.000000e+00 
0.000000e+00 0.000000e+00 0.000000e+00 
0.000000e+00 0.000000e+00 0.000000e+00 
0.000000e+00 0.000000e+00 0.000000e+00 
0.000000e+00 0.000000e+00 0.000000e+00 
0.000000e+00 0.000000e+00 0.000000e+00 
0.000000e+00 0.000000e+00 0.000000e+00 
0.000000e+00 0.000000e+00 0.000000e+00 
0.000000e+00 0.000000e+00 0.000000e+00 
0.000000e+00 0.000000e+00 0.000000e+00 
0.000000e+00 0.000000e+00 0.000000e+00 
0.000000e+00 0.000000e+00 0.000000e+00 
0.000000e+00 0.000000e+00 0.000000e+00 
0.000000e+00 0.000000e+00 0.000000e+00 
0.000000e+00 0.000000e+00 0.000000e+00 
0.000000e+00 0.000000e+00 0.000000e+00 
0.000000e+00 0.000000e+00 0.000000e+00 
0.000000e+00 0.000000e+00 0.000000e+00 
0.000000e+00 0.000000e+00 0.000000e+00 
0.000000e+00 0.000000e+00 0.000000e+00 
0.000000e+00 0.000000e+00 0.000000e+00 
0.000000e+00 0.000000e+00 0.000000e+00 
0.000000e+00 0.000000e+00 0.000000e+00 
0.000000e+00 0.000000e+00 0.000000e+00 
0.000000e+00 0.000000e+00 0.000000e+00 
0.000000e+00 0.000000e+00 0.000000e+00 
0.000000e+00 0.000000e+00 0.000000e+00 
0.000000e+00 0.000000e+00 0.000000e+00 
0.000000e+00 0.000000e+00 0.000000e+00 
0.000000e+00 0.000000e+00 0.000000e+00 
0.000000e+00 0.000000e+00 0.000000e+00 
0.000000e+00 0.000000e+00 0.000000e+00 
0.000000e+00 0.000000e+00 0.000000e+00 
0.000000e+00 0.000000e+00 0.000000e+00 
0.000000e+00 0.000000e+00 0.000000e+00 
0.000000e+00 0.000000e+00 0.000000e+00 
0.000000e+00 0.000000e+00 0.000000e+00 
0.000000e+00 0.000000e+00 0.000000e+00 
0.000000e+00 0.000000e+00 0.000000e+00 
0.000000e+00 0.000000e+00 0.000000e+00 
0.000000e+00 0.000000e+00 0.000000e+00 
0.000000e+00 0.000000e+00 0.000000e+00 
0.000000e+00 0.000000e+00 0.000000e+00 
0.000000e+00 0.000000e+00 0.000000e+00 
0.000000e+00 0.000000e+00 0.000000e+00 
0.000000e+00 0.000000e+00 0.000000e+00 
0.000000e+00 0.000000e+00 0.000000e+00 
0.000000e+00 0.000000e+00 0.000000e+00 
0.000000e+00 0.000000e+00 0.000000e+00 
0.000000e+00 0.000000e+00 0.000000e+00 
0.000000e+00 0.000000e+00 0.000000e+00 
0.000000e+00 0.000000e+00 0.000000e+00 
0.000000e+00 0.000000e+00 0.000000e+00 
0.000000e+00 0.000000e+00 0.000000e+00 
0.000000e+00 0.000000e+00 0.000000e+00 
0.000000e+00 0.000000e+00 0.000000e+00 
0.000000e+00 0.000000e+00 0.000000e+00 
0.000000e+00 0.000000e+00 0.000000e+00 
0.000000e+00 0.000000e+00 0.000000e+00 
0.000000e+00 0.000000e+00 0.000000e+00 
0.000000e+00 0.000000e+00 0.000000e+00 
0.000000e+00 0.000000e+00 0.000000e+00 
0.000000e+00 0.000000e+00 0.000000e+00 
0.000000e+00 0.000000e+00 0.000000e+00 
0.000000e+00 0.000000e+00 0.000000e+00 
0.000000e+00 0.000000e+00 0.000000e+00 
0.000000e+00 0.000000e+00 0.000000e+00 
0.000000e+00 0.000000e+00 0.000000e+00 
0.000000e+00 0.000000e+00 0.000000e+00 
0.000000e+00 0.000000e+00 0.000000e+00 
0.000000e+00 0.000000e+00 0.000000e+00 
0.000000e+00 0.000000e+00 0.000000e+00 
0.000000e+00 0.000000e+00 0.000000e+00 
0.000000e+00 0.000000e+00 0.000000e+00 
0.000000e+00 0.000000e+00 0.000000e+00 
0.000000e+00 0.000000e+00 0.000000e+00 
0.000000e+00 0.000000e+00 0.000000e+00 
0.000000e+00 0.000000e+00 0.000000e+00 
0.000000e+00 0.000000e+00 0.000000e+00 
0.000000e+00 0.000000e+00 0.000000e+00 
0.000000e+00 0.000000e+00 0.000000e+00 
0.000000e+00 0.000000e+00 0.000000e+00 
0.000000e+00 0.000000e+00 0.000000e+00 
0.000000e+00 0.000000e+00 0.000000e+00 