# vtk DataFile Version 3.1
*description-name of input file* step:1601 
ASCII
DATASET UNSTRUCTURED_GRID
POINTS 1605 FLOAT
-7.069405e-09 -5.657526e-09 -3.376288e-10
-7.642376e-09 -4.461714e-09 -5.399971e-10
-6.323414e-09 -4.863122e-09 -7.639771e-10
-7.713640e-09 -4.001978e-09 1.967398e-09
-5.563897e-09 -5.996187e-09 -1.665951e-10
1.217684e-08 6.955300e-09 -1.077714e-08
1.365730e-08 7.319242e-09 -1.082452e-08
1.293954e-08 5.995466e-09 -1.203873e-08
-6.271640e-09 -6.162312e-09 7.934900e-10
-6.335400e-09 -2.903423e-09 8.444632e-10
-4.435311e-09 -4.683422e-09 -1.100468e-09
-6.194810e-09 -2.786748e-09 -4.250720e-10
-5.681580e-09 -5.446102e-09 2.296494e-09
-5.873525e-09 -3.694761e-09 1.839531e-09
-5.104035e-09 -3.551947e-09 -1.599474e-09
-7.530218e-09 -4.384711e-09 3.141525e-09
-3.583932e-09 -5.334513e-09 1.265795e-10
-6.456416e-09 -1.127056e-09 1.701818e-10
-5.370740e-09 -1.383888e-09 -1.006771e-09
-3.935578e-09 -3.934723e-09 -3.401151e-09
-5.136881e-09 -2.819685e-09 -2.979263e-09
-4.150435e-09 -1.917720e-09 -4.005979e-09
-6.400860e-09 -2.615134e-09 2.381097e-09
-5.793723e-09 1.928590e-10 -2.355763e-09
-6.087021e-09 3.690116e-10 -8.135971e-10
-3.731310e-09 -4.675980e-09 1.958630e-09
-7.111083e-09 -1.326927e-09 1.174529e-09
-5.885065e-09 -3.514840e-09 4.185002e-09
-4.156044e-09 -2.117680e-09 -2.841525e-10
-7.966220e-09 -2.256679e-09 3.137860e-09
-2.552641e-09 -4.416726e-09 -2.210052e-09
-2.787815e-09 -3.200531e-09 -3.829850e-09
-2.290038e-09 -4.118343e-09 -3.209341e-09
-3.576529e-09 -3.526250e-09 -6.047090e-10
-5.953474e-09 -2.474633e-09 4.257067e-09
-4.043052e-09 -9.715984e-10 -2.257999e-09
-6.091966e-09 -6.944589e-10 2.167489e-09
-4.633570e-09 -3.358533e-10 4.974128e-10
-2.941567e-09 -1.971780e-09 -2.030611e-09
-3.884056e-09 -4.072121e-09 3.723014e-09
-4.654994e-09 8.369915e-11 -7.197760e-10
-3.867319e-09 4.443392e-10 -5.158926e-09
-3.993014e-09 5.106402e-10 -2.808497e-09
-4.773493e-09 9.623482e-10 -3.954422e-09
-4.260168e-09 -2.510858e-09 2.164382e-09
-1.785626e-09 -3.241644e-09 -7.161355e-10
-4.407309e-09 2.251626e-09 -4.313001e-09
-2.817799e-09 -1.455044e-09 -3.309829e-09
-3.109427e-09 3.892194e-11 -2.653228e-09
-1.494699e-09 -1.776130e-09 -3.254336e-09
-3.210172e-09 3.209358e-10 -6.342061e-10
-3.080401e-09 -2.001151e-09 1.970335e-10
-3.346160e-09 -7.332620e-11 -4.673310e-09
-1.780231e-09 -2.379739e-09 -1.819149e-09
-3.874572e-09 -3.911164e-10 8.317747e-09
-2.323032e-09 -1.467898e-09 7.574454e-09
-1.808216e-09 3.386730e-10 7.410285e-09
-1.599460e-09 5.828728e-10 -3.964265e-09
-5.759995e-09 -3.204108e-09 6.017751e-09
-4.238654e-09 2.391937e-09 -2.587875e-09
-3.680140e-09 -2.858925e-09 3.716909e-09
-4.542155e-09 -2.825574e-10 2.553864e-09
-3.918811e-09 -1.388507e-09 1.412805e-09
-5.455441e-09 2.357817e-09 -2.311755e-10
-4.752724e-09 6.231764e-10 1.158364e-09
-6.538710e-09 1.832881e-09 1.753327e-09
-4.729636e-09 -4.619964e-09 5.657925e-09
-4.685655e-09 -3.812247e-09 6.855773e-09
-6.142571e-09 -1.674349e-09 6.734315e-09
-2.125764e-09 1.801983e-09 2.064794e-09
-2.724325e-10 2.389365e-09 3.677439e-09
-9.655263e-10 1.735626e-09 7.295906e-10
-4.642157e-09 7.752246e-10 -1.041022e-09
-3.060961e-09 -4.498610e-09 5.487646e-09
9.788765e-10 3.863770e-10 3.703343e-09
7.865992e-10 1.291520e-09 4.368956e-09
-1.778883e-12 8.621086e-10 5.630369e-09
-5.471648e-09 3.306587e-09 1.143578e-09
-4.884997e-09 -1.632950e-09 5.467541e-09
-1.081897e-09 -1.083896e-10 -1.278672e-09
-4.532387e-09 -2.278409e-09 4.632538e-09
-3.380123e-09 1.098096e-10 8.360663e-10
-2.134951e-09 -5.265401e-10 9.883102e-11
-5.969594e-09 2.535898e-09 3.730464e-09
-2.392760e-09 -5.145176e-09 3.802185e-09
-3.168938e-09 2.683425e-09 -3.867439e-09
-2.286685e-09 -3.939776e-09 2.635360e-09
-5.653426e-09 -5.558152e-10 5.460259e-09
-2.714725e-09 1.728787e-09 -2.372201e-09
-4.179875e-09 -4.670584e-11 4.929757e-09
-2.891560e-09 -2.935241e-09 5.037843e-09
-5.755354e-09 -6.484004e-10 4.119311e-09
-3.418833e-09 -1.140897e-09 4.294612e-09
-4.793815e-10 -1.579254e-09 -3.330080e-11
-4.465511e-09 3.427990e-09 2.278755e-09
-3.420185e-09 2.975716e-09 -8.900709e-10
-2.649607e-10 -1.528307e-09 -3.391137e-09
5.165182e-10 -2.822592e-09 -2.633436e-09
-3.994216e-09 -2.386090e-09 7.820391e-09
-5.310290e-09 -1.420754e-09 7.708377e-09
-5.465067e-09 2.741110e-10 7.815530e-09
7.167655e-10 2.313339e-09 3.162516e-09
-3.414099e-09 1.273369e-09 7.924216e-10
-3.769453e-09 2.906860e-09 3.822966e-10
-6.547686e-09 1.270109e-09 4.733849e-09
-4.434665e-09 -9.956839e-11 3.627752e-09
-3.734106e-09 -2.581367e-09 6.290978e-09
-1.017214e-10 2.314927e-12 -3.140994e-09
-1.423356e-09 -2.876179e-09 3.728120e-09
-5.166683e-09 1.334652e-09 6.842850e-09
-3.612640e-09 8.099710e-10 3.379689e-09
-4.149741e-09 2.185069e-09 5.460387e-09
-4.245742e-09 1.906029e-09 3.006353e-09
-3.709974e-10 -3.940757e-09 2.741745e-09
7.776732e-10 -3.612830e-09 4.384062e-09
-4.045324e-09 2.230125e-09 1.802645e-09
4.914695e-10 -1.917421e-09 -4.226403e-10
-4.213628e-09 2.780767e-09 4.120670e-09
1.516489e-09 -8.953209e-10 -3.213894e-09
-7.834885e-10 -3.966545e-09 6.188621e-09
-7.408025e-10 -6.440347e-10 1.230109e-09
-2.265575e-09 -3.310957e-09 6.569042e-09
-1.921878e-09 -2.320648e-09 5.624456e-09
-1.646049e-09 -2.982996e-10 2.828868e-09
-1.442965e-09 -1.758339e-09 4.403737e-09
-2.741203e-09 1.390628e-09 3.706721e-09
1.726712e-09 -9.388863e-10 -1.224740e-09
6.681892e-10 8.609262e-10 -1.371645e-09
1.471019e-09 -6.743745e-10 5.862614e-09
-3.249623e-09 1.188848e-09 6.123895e-09
9.999171e-10 6.282216e-10 -3.333603e-09
9.699605e-10 -4.668786e-09 3.106943e-09
-8.080751e-10 -6.595848e-10 4.044705e-09
9.872029e-10 -1.071843e-09 -1.367577e-10
7.042100e-10 -3.537303e-09 5.417775e-09
-3.053482e-09 8.520480e-10 7.511531e-09
-2.236764e-09 2.294249e-09 5.841079e-09
-1.166063e-09 -1.967371e-09 6.736362e-09
2.244690e-09 -4.573340e-09 3.675130e-09
1.952839e-09 -3.762515e-09 2.361591e-09
-2.781519e-10 -1.572359e-09 2.811503e-09
-2.713311e-10 -2.710070e-09 7.211361e-09
1.403418e-09 -1.669435e-09 1.667061e-09
1.995031e-09 -9.200690e-11 -2.161636e-09
-9.763998e-10 1.642244e-09 3.528453e-09
-8.188984e-10 -1.339983e-09 8.052812e-09
1.803878e-09 5.400535e-10 -6.493286e-12
2.601770e-09 -3.330562e-09 4.771754e-09
2.949895e-09 -3.864337e-09 3.416879e-09
1.837882e-09 1.533636e-09 -1.245488e-09
5.824757e-10 -2.278812e-09 6.264249e-09
-1.694765e-09 7.278769e-10 5.165644e-09
2.851248e-09 -2.018379e-10 8.912603e-10
2.525831e-09 3.914311e-10 -4.025477e-09
1.731437e-09 -2.586311e-09 4.835874e-09
3.612433e-09 -2.705430e-09 2.419936e-09
3.445242e-09 6.757201e-10 -2.139069e-09
2.602103e-09 2.375652e-09 -2.724199e-09
2.700574e-09 2.222747e-09 -4.193966e-09
3.453743e-09 9.455430e-10 -4.002633e-09
4.235641e-09 1.500166e-09 -5.335412e-09
1.161192e-09 -1.476664e-09 4.183803e-09
6.374403e-10 -7.315728e-10 7.276112e-09
2.545193e-09 -7.219799e-10 2.077414e-09
1.324390e-09 1.514429e-09 6.954716e-10
2.083333e-09 1.624441e-09 -1.015231e-10
4.544100e-09 1.679545e-09 -3.664378e-09
2.570283e-10 1.451256e-09 7.510503e-09
1.470958e-09 1.171605e-09 2.091098e-09
2.983239e-09 -2.253351e-09 3.447025e-09
2.129327e-09 -2.471808e-10 3.465999e-09
3.522936e-09 -1.931132e-10 2.056776e-09
4.478294e-09 2.871113e-09 -3.647054e-09
3.132616e-09 9.583776e-10 -8.319745e-10
3.396896e-09 1.586090e-09 -1.835021e-09
4.924015e-09 2.609284e-09 -5.164305e-09
3.380777e-09 1.087242e-09 7.900097e-10
5.267138e-09 1.906745e-09 -6.097470e-09
5.402898e-09 1.516050e-09 -4.723128e-09
3.777453e-09 1.152053e-11 3.176379e-11
3.095777e-09 9.278433e-10 2.723365e-09
6.537688e-09 1.497071e-09 -5.857440e-09
5.848471e-09 2.681387e-09 -4.081097e-09
7.288924e-09 3.089080e-09 -6.756484e-09
6.710964e-09 2.101701e-09 -5.118056e-09
7.354200e-09 2.184846e-09 -6.353274e-09
6.266688e-09 3.489643e-09 -4.777776e-09
7.485554e-09 3.372298e-09 -5.519151e-09
8.695662e-09 2.835245e-09 -5.928889e-09
8.294848e-09 2.750703e-09 -7.082384e-09
8.551166e-09 4.184966e-09 -6.839336e-09
9.456898e-09 3.038337e-09 -6.610747e-09
1.036540e-08 4.422636e-09 -7.738304e-09
1.027116e-08 5.027921e-09 -7.836181e-09
9.490454e-09 3.931932e-09 -6.034418e-09
1.113420e-08 4.391274e-09 -6.790018e-09
1.005827e-08 4.884822e-09 -6.061432e-09
1.136794e-08 5.015954e-09 -8.641261e-09
1.124861e-08 6.538968e-09 -7.602545e-09
1.115232e-08 5.280739e-09 -6.540669e-09
1.284443e-08 4.828708e-09 -8.192463e-09
1.142032e-08 6.588550e-09 -1.007588e-08
1.168202e-08 5.884540e-09 -1.023757e-08
1.123200e-08 6.116188e-09 -8.939508e-09
1.222382e-08 5.060367e-09 -9.062397e-09
1.156671e-08 5.801636e-09 -7.065137e-09
1.292505e-08 5.489687e-09 -7.902644e-09
1.336433e-08 5.067933e-09 -9.088601e-09
1.401413e-08 5.395974e-09 -1.060015e-08
1.174035e-08 6.974951e-09 -8.811162e-09
1.431733e-08 6.717451e-09 -1.020219e-08
1.384249e-08 6.254149e-09 -8.902154e-09
1.355567e-08 7.783842e-09 -9.244954e-09
1.960608e-09 1.579038e-09 -6.735056e-10
-4.339935e-09 -3.099168e-09 7.338082e-09
7.321562e-09 2.636963e-09 -6.554879e-09
7.387239e-09 3.230689e-09 -6.137817e-09
1.255819e-08 6.475383e-09 -1.140794e-08
2.352583e-09 1.300836e-09 7.427407e-10
-3.932583e-09 2.023175e-10 -6.769910e-10
8.090608e-09 3.103771e-09 -5.724020e-09
4.472343e-10 3.598413e-10 7.393307e-09
-2.068537e-10 3.762683e-10 -1.325159e-09
-3.025497e-09 -9.664292e-10 -2.341919e-09
7.791886e-09 2.919891e-09 -6.919434e-09
-4.506073e-09 1.677143e-09 -3.271148e-09
-5.645717e-09 1.228029e-09 1.455845e-09
-9.490031e-11 1.466882e-09 3.948705e-09
1.316105e-09 -1.075519e-09 5.023208e-09
1.031828e-08 4.725278e-09 -7.787243e-09
-4.519807e-09 -3.743335e-09 -2.500313e-09
-3.907389e-09 2.568492e-09 1.092471e-09
-3.285850e-09 -2.897083e-09 4.377376e-09
-6.005179e-09 2.569734e-09 1.448452e-09
1.114326e-08 4.836007e-09 -6.665343e-09
1.276247e-10 1.156682e-09 6.570436e-09
2.832339e-10 4.316206e-10 -2.256320e-09
2.570833e-10 1.840442e-09 4.023198e-09
-4.708692e-09 -1.955680e-09 5.050039e-09
-1.672617e-09 -2.598414e-09 4.676288e-09
-4.117482e-09 3.167425e-09 1.330526e-09
-2.141257e-09 -2.488330e-09 -3.542093e-09
1.329842e-08 6.657354e-09 -1.143163e-08
[...]
POINT_DATA 1605
VECTORS vector_force float
6.331314e+02 -1.133542e+03 3.083142e+02 
-7.367539e+01 -1.794673e+03 -4.138236e+02 
-1.911848e+02 -1.309677e+03 1.115166e+02 
-6.100422e+02 1.869387e+02 2.428092e+02 
1.993381e+01 -7.120220e+02 4.044598e+02 
5.785011e+01 -6.987756e+02 -5.210682e+02 
4.755758e+02 2.604095e+02 2.082524e+02 
4.046496e+02 -5.222838e+02 -8.429084e+01 
1.648246e+02 -4.542810e+02 8.382898e+02 
3.133548e+01 -8.246235e+02 5.082713e+01 
2.657165e+02 -2.588558e+02 3.240053e+01 
3.205118e+02 -7.020616e+02 -4.094443e+02 
-3.270849e+02 -6.051639e+02 2.778109e+02 
2.065899e+02 -7.789147e+02 -3.953733e+02 
-5.640835e+02 -1.944012e+02 2.913776e+02 
2.907642e+02 3.590373e+02 -3.768688e+02 
1.450576e+02 -6.550834e+02 2.548921e+02 
6.628467e+02 -1.444412e+02 2.874304e+01 
-2.093881e+02 -1.778139e+02 9.700555e+02 
-1.571301e+03 -3.428729e+02 6.861656e+02 
-1.079730e+03 -3.878742e+02 7.875402e+01 
-6.703662e+02 -8.833468e+02 -6.695217e+02 
-7.089600e+02 -8.317266e+02 -8.352095e+01 
7.975595e+02 -1.097466e+03 6.431398e+02 
-3.054103e+02 4.040443e+02 -1.558200e+03 
-2.839747e+02 -4.302744e+02 -3.654374e+02 
-2.743735e+02 -7.528284e+02 -7.956455e+02 
2.840746e+02 -2.879115e+02 2.245600e+02 
-3.593593e+02 3.987703e+02 9.863438e+01 
-9.694592e+00 4.035001e+01 7.904091e+02 
-4.994442e+02 -6.804492e+02 -1.169800e+02 
-3.397241e+02 -3.413709e+02 -1.521938e+02 
-1.177795e+03 5.313242e+02 6.117888e+01 
1.211607e+02 2.732617e+02 9.073414e+01 
8.478533e+00 -5.128372e+02 2.029069e+02 
1.490414e+02 -2.849348e+02 5.701501e+02 
-1.112224e+03 -3.945850e+02 7.027692e+02 
-2.843795e+02 -5.428650e+02 3.694559e+02 
-2.827528e+02 1.705072e+02 -7.992790e+01 
-1.062447e+01 -2.315881e+02 -3.245941e+02 
-7.292509e+02 3.028383e+02 2.148815e+02 
4.473966e+02 -1.649768e+03 5.063378e+02 
1.147838e+02 -3.241798e+02 6.818120e+02 
2.964811e+02 -7.962183e+02 6.462988e+02 
-2.516406e+02 2.447392e+02 1.687121e+01 
-3.837344e+02 1.102934e+03 -8.150319e+02 
2.659136e+02 -6.207587e+02 4.821697e+02 
-3.946483e+02 -3.763130e+02 -7.101163e+02 
4.216169e+01 -2.274128e+02 -3.151742e+02 
3.703469e+02 -4.308421e+02 -3.107178e+02 
-5.575658e+02 2.645778e+02 -3.279933e+02 
-5.029239e+01 -2.193303e+02 -1.165915e+02 
-1.784683e+02 -1.740141e+03 6.266826e+02 
5.894266e+01 -6.788946e+01 -8.041126e+02 
9.513617e+01 1.848053e+02 -4.231595e+02 
-6.976348e-02 -3.264135e+02 3.196505e+02 
-3.568125e+02 -1.261871e+02 2.353889e+02 
1.494866e+02 -8.255924e+01 7.147545e+02 
-6.378230e+02 5.980381e+02 4.849994e+02 
-1.316031e+01 3.217561e+02 8.899774e+02 
1.431698e+02 -5.700531e+02 -2.399109e+02 
-8.772458e+02 -1.979004e+02 7.852796e+02 
-1.276418e+02 -3.987267e+00 -2.366201e+02 
-3.087486e+02 -5.962157e+02 -1.948581e+02 
1.533499e+02 -1.930724e+02 5.324702e+02 
4.760787e+02 -4.360708e+02 -7.192831e+02 
4.769966e+02 -2.511760e+02 4.823151e+02 
-6.579558e+02 2.494793e+02 1.339585e+02 
4.432230e+01 1.334613e+02 -8.115826e+02 
-1.124491e+03 -1.444547e+03 -6.223581e+01 
-3.533804e+01 -1.948326e+02 1.049958e+03 
-3.914730e+02 -8.009409e+02 -1.280898e+01 
-5.859862e+02 -3.728364e+02 5.842822e+02 
-2.143970e+02 9.143706e+02 1.197910e+03 
-2.095801e+01 -1.407138e+02 3.248320e+01 
6.097502e+02 -5.578764e+02 4.256055e+02 
3.651350e+02 7.181459e+01 1.658690e+02 
-6.093295e+02 -1.104289e+02 1.604957e+02 
1.645004e+02 3.094122e+02 -7.116604e+02 
2.384877e+02 5.440743e+02 -6.244895e+02 
6.974527e+02 -6.941538e+02 -8.411056e+02 
2.989771e+02 -9.327547e+01 -2.597337e+02 
-5.553879e+02 5.247699e+02 -1.812000e+02 
1.420770e+01 -2.598657e+01 -6.809397e+02 
-6.667313e+01 -2.721082e+02 5.559808e+02 
-2.998874e+02 -1.358341e+01 -2.344931e+02 
-5.972878e+02 -5.963064e+02 2.201663e+02 
-4.077192e+02 7.948941e+02 -5.006859e+02 
-1.112407e+02 -8.909579e+02 9.727696e+02 
4.036070e+02 -5.291035e+02 5.151837e+02 
-1.187268e+02 3.316415e+01 3.778858e+02 
6.903991e+02 1.472482e+03 -3.961150e+02 
-6.653591e+01 1.855446e+02 -3.840852e+02 
-6.527679e+02 4.007683e+02 -7.682014e+02 
2.080528e+02 2.943180e+02 -2.124386e+02 
1.020906e+03 -7.025120e+02 -6.061200e+01 
-5.519874e+02 -7.780596e+02 -5.227197e+02 
-6.597550e+00 -1.190794e+02 1.519896e+02 
-2.166277e+02 4.532473e+02 -7.750832e+02 
-9.883963e+02 6.844390e+02 -9.663336e+02 
3.465049e+01 4.371860e+02 4.323331e+02 
-8.695710e+02 6.608418e+02 -3.297655e+02 
2.860476e+02 -3.814290e+00 9.583702e+02 
4.173310e+02 -5.764350e+02 -4.893820e+02 
8.306193e+02 7.400989e+02 -8.320795e+02 
1.082889e+02 5.167558e+01 3.905931e+02 
-2.535213e+02 1.409205e+02 -3.636904e+02 
-1.208315e+02 4.033047e+02 8.203607e+01 
-8.502679e+01 3.247717e+01 -1.372759e+02 
6.582918e+02 -6.263224e+02 7.579568e+01 
-9.376924e+01 -7.909180e+02 1.911711e+02 
7.125158e+02 -4.048302e+02 6.356431e+02 
7.310180e+02 2.898276e+02 -9.274012e+01 
1.236097e+02 3.869093e+02 3.052444e+02 
2.572568e+01 3.818130e+02 -5.570666e+02 
-4.720844e+02 7.959425e+01 -2.590821e+02 
-1.871586e+02 2.397098e+02 -1.366734e+02 
9.164954e+02 -6.650916e+02 4.788622e+02 
-2.973177e+02 -3.314340e+02 7.052098e+01 
-3.475089e+02 5.551289e+02 2.117163e+01 
2.006011e+02 -6.868734e+02 -1.846910e+02 
3.245484e+02 7.067861e+02 1.292587e+02 
2.147280e+02 7.802605e+01 1.514726e+02 
-7.306318e+01 -4.355091e+02 3.416765e+02 
8.152507e+01 -1.168508e+02 2.010417e+02 
3.385820e+00 -5.231541e+02 5.993100e+01 
6.757748e+02 3.254608e+02 2.237150e+02 
-1.387003e+02 2.656310e+02 -4.684568e+02 
3.517873e+02 2.705468e+02 -7.580135e+01 
1.005190e+02 -4.094351e+01 1.962068e+02 
4.722494e+02 -5.349938e+02 1.625995e+01 
1.368905e+01 -5.541884e+02 2.681096e+02 
6.614827e+02 -2.996635e+02 2.996307e+02 
8.015630e+01 4.253906e+02 -4.917015e+02 
4.156533e+02 3.247934e+02 -1.042938e+02 
4.809212e+01 -8.657241e+02 -6.266259e+02 
4.216767e+02 6.529523e+02 -1.517442e+03 
1.149780e+02 1.814204e+02 6.912418e+02 
1.173657e+02 -1.144249e+03 8.134410e+02 
-3.566323e+02 -4.459280e+02 1.428805e+02 
6.961851e+02 5.803162e+02 4.023135e+02 
-6.881518e+02 -4.005863e+02 8.836697e+01 
5.822607e+01 3.993540e+02 3.143768e+01 
-1.239198e+02 -3.990048e+02 -1.333846e+02 
-7.397326e+02 -1.224280e+03 3.666857e+02 
2.483287e+02 -1.904697e+02 7.708114e+02 
-2.843482e+02 -1.627663e+02 -7.538797e+02 
-7.127161e+02 -5.099998e+02 -6.766893e+01 
9.534400e+01 1.874044e+02 8.885465e+01 
3.853790e+02 -1.800759e+02 1.980421e+02 
1.851820e+02 7.404271e+02 1.384825e+02 
6.764472e+01 -2.558712e+02 3.852049e+02 
2.024841e+02 -5.437673e+02 3.434361e+02 
-9.918276e+02 -9.726283e+02 2.228578e+02 
5.279113e+01 -8.695992e+01 -1.454130e+02 
-2.252018e+01 3.952349e+02 -1.730687e+02 
6.648956e+02 -7.674552e+01 7.621761e+02 
-3.316798e+01 -6.520708e+02 -1.191508e+03 
2.287333e+02 -2.089435e+02 -5.898612e+02 
-4.553239e+02 -9.026832e+02 2.458353e+02 
1.052687e+03 -2.103458e+02 1.241189e+03 
3.011733e+02 -1.340488e+02 -1.353215e+02 
2.853161e+02 -2.190957e+02 3.223651e+02 
5.592310e+02 -2.781228e+02 2.307681e+02 
-8.872960e+02 2.317470e+02 -4.300388e+02 
6.369184e+02 -2.757333e+01 6.522631e+02 
-5.858087e+02 -5.802870e+01 -1.954627e+01 
5.851640e+01 -4.892816e+02 5.555154e+02 
-1.375457e+02 1.373475e+02 5.994287e+01 
2.902430e+02 3.417462e+02 -4.943615e+02 
-2.126873e+01 -6.295464e+02 1.314721e+02 
-6.628610e+00 5.885242e+02 1.361719e+02 
-9.235552e+01 1.939967e+02 1.052263e+02 
5.244709e+01 1.146807e+02 -4.300209e+01 
3.761446e+02 2.337192e+02 -8.238857e+02 
9.737110e+01 -2.261608e+02 -3.392441e+02 
-6.670845e+01 -4.614859e+01 -4.926138e+02 
3.465243e+02 -6.525695e+02 -6.794078e+01 
-2.730677e+02 5.080807e+01 1.999328e+02 
-4.719086e+02 8.850488e+01 3.189290e+02 
-9.123759e+02 1.379437e+03 2.483267e+02 
3.666841e+02 2.749613e+01 1.480893e+02 
-6.403209e+01 4.902206e+02 -3.217808e+02 
9.946908e+00 4.592207e+01 9.919276e+02 
3.153855e+02 -4.276880e+02 1.922663e+02 
1.446548e+02 1.826058e+02 5.147203e+02 
-8.409398e+02 -2.120862e+02 5.679582e+02 
-2.909288e+02 -4.653575e+02 6.028282e+02 
-7.504504e+02 -2.757288e+02 1.901345e+02 
-6.873768e+02 1.827460e+02 5.843699e+01 
-6.325821e+02 2.233848e+01 6.985599e+02 
1.077748e+02 4.527944e+02 4.747568e+02 
2.522492e+02 2.183049e+02 6.159414e+01 
1.100615e+03 2.871114e+02 1.323917e+03 
-2.926754e+02 -1.438244e+02 1.298319e+03 
3.296342e+02 -5.702831e+02 3.775581e+02 
-1.132684e+03 -2.171188e+02 5.522529e+02 
1.133566e+03 3.229747e+02 2.903589e+02 
6.319242e+02 1.950688e+02 1.846175e+02 
1.065164e+02 9.419911e+01 5.546770e+02 
1.158522e+03 -2.646492e+02 3.024882e+02 
9.442174e+02 -8.205554e+02 2.545963e+02 
3.606710e+02 -1.121515e+02 1.029286e+02 
3.327098e+02 -7.029563e+02 -3.877747e+01 
4.898694e+02 1.211126e+02 3.033797e+02 
5.660346e+02 -2.163780e+02 8.173870e+02 
7.530234e+02 -1.583991e+02 1.149093e+03 
1.031627e+03 8.320510e+02 -2.896700e+02 
-2.493555e+01 -9.288389e+01 5.290168e+02 
-3.294422e+02 8.558017e+02 -1.648833e+03 
-3.301411e+02 3.596460e+02 1.215089e+02 
1.063714e+03 8.070343e+02 5.897019e+02 
-3.051018e+02 4.981790e+02 -1.391016e+03 
0.000000e+00 0.000000e+00 0.000000e+00 
0.000000e+00 0.000000e+00 0.000000e+00 
0.000000e+00 0.000000e+00 0.000000e+00 
0.000000e+00 0.000000e+00 0.000000e+00 
0.000000e+00 0.000000e+00 0.000000e+00 
0.000000e+00 0.000000e+00 0.000000e+00 
0.000000e+00 0.000000e+00 0.000000e+00 
0.000000e+00 0.000000e+00 0.000000e+00 
0.000000e+00 0.000000e+00 0.000000e+00 
0.000000e+00 0.000000e+00 0.000000e+00 
0.000000e+00 0.000000e+00 0.000000e+00 
0.000000e+00 0.000000e+00 0.000000e+00 
0.000000e+00 0.000000e+00 0.000000e+00 
0.000000e+00 0.000000e+00 0.000000e+00 
0.000000e+00 0.000000e+00 0.000000e+00 
0.000000e+00 0.000000e+00 0.000000e+00 
0.000000e+00 0.000000e+00 0.000000e+00 
0.000000e+00 0.000000e+00 0.000000e+00 
0.000000e+00 0.000000e+00 0.000000e+00 
0.000000e+00 0.000000e+00 0.000000e+00 
0.000000e+00 0.000000e+00 0.000000e+00 
0.000000e+00 0.000000e+00 0.000000e+00 
0.000000e+00 0.000000e+00 0.000000e+00 
0.000000e+00 0.000000e+00 0.000000e+00 
0.000000e+00 0.000000e+00 0.000000e+00 
0.000000e+00 0.000000e+00 0.000000e+00 
0.000000e+00 0.000000e+00 0.000000e+00 
0.000000e+00 0.000000e+00 0.000000e+00 
0.000000e+00 0.000000e+00 0.000000e+00 
0.000000e+00 0.000000e+00 0.000000e+00 
0.000000e+00 0.000000e+00 0.000000e+00 
0.000000e+00 0.000000e+00 0.000000e+00 
0.000000e+00 0.000000e+00 0.000000e+00 
0.000000e+00 0.000000e+00 0.000000e+00 
0.000000e+00 0.000000e+00 0.000000e+00 
0.000000e+00 0.000000e+00 0.000000e+00 
0.000000e+00 0.000000e+00 0.000000e+00 
0.000000e+00 0.000000e+00 0.000000e+00 
0.000000e+00 0.000000e+00 0.000000e+00 
0.000000e+00 0.000000e+00 0.000000e+00 
0.000000e+00 0.000000e+00 0.000000e+00 
0.000000e+00 0.000000e+00 0.000000e+00 
0.000000e+00 0.000000e+00 0.000000e+00 
0.000000e+00 0.000000e+00 0.000000e+00 
0.000000e+00 0.000000e+00 0.000000e+00 
0.000000e+00 0.000000e+00 0.000000e+00 
0.000000e+00 0.000000e+00 0.000000e+00 
0.000000e+00 0.000000e+00 0.000000e+00 
0.000000e+00 0.000000e+00 0.000000e+00 
0.000000e+00 0.000000e+00 0.000000e+00 
0.000000e+00 0.000000e+00 0.000000e+00 
0.000000e+00 0.000000e+00 0.000000e+00 
0.000000e+00 0.000000e+00 0.000000e+00 
0.000000e+00 0.000000e+00 0.000000e+00 
0.000000e+00 0.000000e+00 0.000000e+00 
0.000000e+00 0.000000e+00 0.000000e+00 
0.000000e+00 0.000000e+00 0.000000e+00 
0.000000e+00 0.000000e+00 0.000000e+00 
0.000000e+00 0.000000e+00 0.000000e+00 
0.000000e+00 0.000000e+00 0.000000e+00 
0.000000e+00 0.000000e+00 0.000000e+00 
0.000000e+00 0.000000e+00 0.000000e+00 
0.000000e+00 0.000000e+00 0.000000e+00 
0.000000e+00 0.000000e+00 0.000000e+00 
0.000000e+00 0.000000e+00 0.000000e+00 
0.000000e+00 0.000000e+00 0.000000e+00 
0.000000e+00 0.000000e+00 0.000000e+00 
0.000000e+00 0.000000e+00 0.000000e+00 
0.000000e+00 0.000000e+00 0.000000e+00 
0.000000e+00 0.000000e+00 0.000000e+00 
0.000000e+00 0.000000e+00 0.000000e+00 
0.000000e+00 0.000000e+00 0.000000e+00 
0.000000e+00 0.000000e+00 0.000000e+00 
0.000000e+00 0.000000e+00 0.000000e+00 
0.000000e+00 0.000000e+00 0.000000e+00 
0.000000e+00 0.000000e+00 0.000000e+00 
0.000000e+00 0.000000e+00 0.000000e+00 
0.000000e+00 0.000000e+00 0.000000e+00 
0.000000e+00 0.000000e+00 0.000000e+00 
0.000000e+00 0.000000e+00 0.000000e+00 
0.000000e+00 0.000000e+00 0.000000e+00 
0.000000e+00 0.000000e+00 0.000000e+00 
0.000000e+00 0.000000e+00 0.000000e+00 
0.000000e+00 0.000000e+00 0.000000e+00 
0.000000e+00 0.000000e+00 0.000000e+00 
0.000000e+00 0.000000e+00 0.000000e+00 
0.000000e+00 0.000000e+00 0.000000e+00 
0.000000e+00 0.000000e+00 0.000000e+00 
0.000000e+00 0.000000e+00 0.000000e+00 
0.000000e+00 0.000000e+00 0.000000e+00 
0.000000e+00 0.000000e+00 0.000000e+00 
0.000000e+00 0.000000e+00 0.000000e+00 
0.000000e+00 0.000000e+00 0.000000e+00 
0.000000e+00 0.000000e+00 0.000000e+00 
0.000000e+00 0.000000e+00 0.000000e+00 
0.000000e+00 0.000000e+00 0.000000e+00 
0.000000e+00 0.000000e+00 0.000000e+00 
0.000000e+00 0.000000e+00 0.000000e+00 
0.000000e+00 0.000000e+00 0.000000e+00 
0.000000e+00 0.000000e+00 0.000000e+00 
0.000000e+00 0.000000e+00 0.000000e+00 
0.000000e+00 0.000000e+00 0.000000e+00 
0.000000e+00 0.000000e+00 0.000000e+00 
0.000000e+00 0.000000e+00 0.000000e+00 
0.000000e+00 0.000000e+00 0.000000e+00 
0.000000e+00 0.000000e+00 0.000000e+00 
0.000000e+00 0.000000e+00 0.000000e+00 
0.000000e+00 0.000000e+00 0.000000e+00 
0.000000e+00 0.000000e+00 0.000000e+00 
0.000000e+00 0.000000e+00 0.000000e+00 
0.000000e+00 0.000000e+00 0.000000e+00 
0.000000e+00 0.000000e+00 0.000000e+00 
0.000000e+00 0.000000e+00 0.000000e+00 
0.000000e+00 0.000000e+00 0.000000e+00 
0.000000e+00 0.000000e+00 0.000000e+00 
0.000000e+00 0.000000e+00 0.000000e+00 
0.000000e+00 0.000000e+00 0.000000e+00 
0.000000e+00 0.000000e+00 0.000000e+00 
0.000000e+00 0.000000e+00 0.000000e+00 
0.000000e+00 0.000000e+00 0.000000e+00 
0.000000e+00 0.000000e+00 0.000000e+00 
0.000000e+00 0.000000e+00 0.000000e+00 
0.000000e+00 0.000000e+00 0.000000e+00 
0.000000e+00 0.000000e+00 0.000000e+00 
0.000000e+00 0.000000e+00 0.000000e+00 
0.000000e+00 0.000000e+00 0.000000e+00 
0.000000e+00 0.000000e+00 0.000000e+00 
0.000000e+00 0.000000e+00 0.000000e+00 
0.000000e+00 0.000000e+00 0.000000e+00 
0.000000e+00 0.000000e+00 0.000000e+00 
0.000000e+00 0.000000e+00 0.000000e+00 
0.000000e+00 0.000000e+00 0.000000e+00 
0.000000e+00 0.000000e+00 0.000000e+00 
0.000000e+00 0.000000e+00 0.000000e+00 
0.000000e+00 0.000000e+00 0.000000e+00 
0.000000e+00 0.000000e+00 0.000000e+00 
0.000000e+00 0.000000e+00 0.000000e+00 
0.000000e+00 0.000000e+00 0.000000e+00 
0.000000e+00 0.000000e+00 0.000000e+00 
0.000000e+00 0.000000e+00 0.000000e+00 
0.000000e+00 0.000000e+00 0.000000e+00 
0.000000e+00 0.000000e+00 0.000000e+00 
0.000000e+00 0.000000e+00 0.000000e+00 
0.000000e+00 0.000000e+00 0.000000e+00 
0.000000e+00 0.000000e+00 0.000000e+00 
0.000000e+00 0.000000e+00 0.000000e+00 
0.000000e+00 0.000000e+00 0.000000e+00 
0.000000e+00 0.000000e+00 0.000000e+00 
0.000000e+00 0.000000e+00 0.000000e+00 
0.000000e+00 0.000000e+00 0.000000e+00 
0.000000e+00 0.000000e+00 0.000000e+00 
0.000000e+00 0.000000e+00 0.000000e+00 
0.000000e+00 0.000000e+00 0.000000e+00 
0.000000e+00 0.000000e+00 0.000000e+00 
0.000000e+00 0.000000e+00 0.000000e+00 
0.000000e+00 0.000000e+00 0.000000e+00 
0.000000e+00 0.000000e+00 0.000000e+00 
0.000000e+00 0.000000e+00 0.000000e+00 
0.000000e+00 0.000000e+00 0.000000e+00 
0.000000e+00 0.000000e+00 0.000000e+00 
0.000000e+00 0.000000e+00 0.000000e+00 
0.000000e+00 0.000000e+00 0.000000e+00 
0.000000e+00 0.000000e+00 0.000000e+00 
0.000000e+00 0.000000e+00 0.000000e+00 
0.000000e+00 0.000000e+00 0.000000e+00 
0.000000e+00 0.000000e+00 0.000000e+00 
0.000000e+00 0.000000e+00 0.000000e+00 
0.000000e+00 0.000000e+00 0.000000e+00 
0.000000e+00 0.000000e+00 0.000000e+00 
0.000000e+00 0.000000e+00 0.000000e+00 
0.000000e+00 0.000000e+00 0.000000e+00 
0.000000e+00 0.000000e+00 0.000000e+00 
0.000000e+00 0.000000e+00 0.000000e+00 
0.000000e+00 0.000000e+00 0.000000e+00 
0.000000e+00 0.000000e+00 0.000000e+00 
0.000000e+00 0.000000e+00 0.000000e+00 
0.000000e+00 0.000000e+00 0.000000e+00 
0.000000e+00 0.000000e+00 0.000000e+00 
0.000000e+00 0.000000e+00 0.000000e+00 
0.000000e+00 0.000000e+00 0.000000e+00 
0.000000e+00 0.000000e+00 0.000000e+00 
0.000000e+00 0.000000e+00 0.000000e+00 
0.000000e+00 0.000000e+00 0.000000e+00 
0.000000e+00 0.000000e+00 0.000000e+00 
0.000000e+00 0.000000e+00 0.000000e+00 
0.000000e+00 0.000000e+00 0.000000e+00 
0.000000e+00 0.000000e+00 0.000000e+00 
0.000000e+00 0.000000e+00 0.000000e+00 
0.000000e+00 0.000000e+00 0.000000e+00 
0.000000e+00 0.000000e+00 0.000000e+00 
0.000000e+00 0.000000e+00 0.000000e+00 
0.000000e+00 0.000000e+00 0.000000e+00 
0.000000e+00 0.000000e+00 0.000000e+00 
0.000000e+00 0.000000e+00 0.000000e+00 
0.000000e+00 0.000000e+00 0.000000e+00 
0.000000e+00 0.000000e+00 0.000000e+00 
0.000000e+00 0.000000e+00 0.000000e+00 
0.000000e+00 0.000000e+00 0.000000e+00 
0.000000e+00 0.000000e+00 0.000000e+00 
0.000000e+00 0.000000e+00 0.000000e+00 
0.000000e+00 0.000000e+00 0.000000e+00 
0.000000e+00 0.000000e+00 0.000000e+00 
0.000000e+00 0.000000e+00 0.000000e+00 
0.000000e+00 0.000000e+00 0.000000e+00 
0.000000e+00 0.000000e+00 0.000000e+00 
0.000000e+00 0.000000e+00 0.000000e+00 
0.000000e+00 0.000000e+00 0.000000e+00 
0.000000e+00 0.000000e+00 0.000000e+00 
0.000000e+00 0.000000e+00 0.000000e+00 
0.000000e+00 0.000000e+00 0.000000e+00 
0.000000e+00 0.000000e+00 0.000000e+00 
0.000000e+00 0.000000e+00 0.000000e+00 
0.000000e+00 0.000000e+00 0.000000e+00 
0.000000e+00 0.000000e+00 0.000000e+00 
0.000000e+00 0.000000e+00 0.000000e+00 
0.000000e+00 0.000000e+00 0.000000e+00 
0.000000e+00 0.000000e+00 0.000000e+00 
0.000000e+00 0.000000e+00 0.000000e+00 
0.000000e+00 0.000000e+00 0.000000e+00 
0.000000e+00 0.000000e+00 0.000000e+00 
0.000000e+00 0.000000e+00 0.000000e+00 
0.000000e+00 0.000000e+00 0.000000e+00 
0.000000e+00 0.000000e+00 0.000000e+00 
0.000000e+00 0.000000e+00 0.000000e+00 
0.000000e+00 0.000000e+00 0.000000e+00 
0.000000e+00 0.000000e+00 0.000000e+00 
0.000000e+00 0.000000e+00 0.000000e+00 
0.000000e+00 0.000000e+00 0.000000e+00 
0.000000e+00 0.000000e+00 0.000000e+00 
0.000000e+00 0.000000e+00 0.000000e+00 
0.000000e+00 0.000000e+00 0.000000e+00 
0.000000e+00 0.000000e+00 0.000000e+00 
0.000000e+00 0.000000e+00 0.000000e+00 
0.000000e+00 0.000000e+00 0.000000e+00 
0.000000e+00 0.000000e+00 0.000000e+00 
0.000000e+00 0.000000e+00 0.000000e+00 
0.000000e+00 0.000000e+00 0.000000e+00 
0.000000e+00 0.000000e+00 0.000000e+00 
0.000000e+00 0.000000e+00 0.000000e+00 
0.000000e+00 0.000000e+00 0.000000e+00 
0.000000e+00 0.000000e+00 0.000000e+00 
0.000000e+00 0.000000e+00 0.000000e+00 
0.000000e+00 0.000000e+00 0.000000e+00 
0.000000e+00 0.000000e+00 0.000000e+00 
0.000000e+00 0.000000e+00 0.000000e+00 
0.000000e+00 0.000000e+00 0.000000e+00 
0.000000e+00 0.000000e+00 0.000000e+00 
0.000000e+00 0.000000e+00 0.000000e+00 
0.000000e+00 0.000000e+00 0.000000e+00 
0.000000e+00 0.000000e+00 0.000000e+00 
0.000000e+00 0.000000e+00 0.000000e+00 
0.000000e+00 0.000000e+00 0.000000e+00 
0.000000e+00 0.000000e+00 0.000000e+00 
0.000000e+00 0.000000e+00 0.000000e+00 
0.000000e+00 0.000000e+00 0.000000e+00 
0.000000e+00 0.000000e+00 0.000000e+00 
0.000000e+00 0.000000e+00 0.000000e+00 
0.000000e+00 0.000000e+00 0.000000e+00 
0.000000e+00 0.000000e+00 0.000000e+00 
0.000000e+00 0.000000e+00 0.000000e+00 
0.000000e+00 0.000000e+00 0.000000e+00 
0.000000e+00 0.000000e+00 0.000000e+00 
0.000000e+00 0.000000e+00 0.000000e+00 
0.000000e+00 0.000000e+00 0.000000e+00 
0.000000e+00 0.000000e+00 0.000000e+00 
0.000000e+00 0.000000e+00 0.000000e+00 
0.000000e+00 0.000000e+00 0.000000e+00 
0.000000e+00 0.000000e+00 0.000000e+00 
0.000000e+00 0.000000e+00 0.000000e+00 
0.000000e+00 0.000000e+00 0.000000e+00 
0.000000e+00 0.000000e+00 0.000000e+00 
0.000000e+00 0.000000e+00 0.000000e+00 
0.000000e+00 0.000000e+00 0.000000e+00 
0.000000e+00 0.000000e+00 0.000000e+00 
0.000000e+00 0.000000e+00 0.000000e+00 
0.000000e+00 0.000000e+00 0.000000e+00 
0.000000e+00 0.000000e+00 0.000000e+00 
0.000000e+00 0.000000e+00 0.000000e+00 