# vtk DataFile Version 3.1
*description-name of input file* step:701 
ASCII
DATASET UNSTRUCTURED_GRID
POINTS 1605 FLOAT
-7.083168e-09 -5.894963e-09 -3.506763e-11
-7.608011e-09 -4.637188e-09 -7.356264e-10
-6.290164e-09 -5.036946e-09 -7.985898e-10
-7.692728e-09 -4.130757e-09 1.907583e-09
-5.410140e-09 -6.027276e-09 -1.672824e-10
1.217210e-08 7.168351e-09 -1.076457e-08
1.364986e-08 7.299091e-09 -1.079186e-08
1.279832e-08 5.928814e-09 -1.188769e-08
-6.061632e-09 -6.194994e-09 9.015329e-10
-6.224262e-09 -3.055459e-09 8.318795e-10
-4.270470e-09 -4.572703e-09 -1.135165e-09
-6.224036e-09 -2.928193e-09 -5.863814e-10
-5.505830e-09 -5.431727e-09 2.363794e-09
-5.912625e-09 -3.755108e-09 1.873984e-09
-5.055501e-09 -3.759993e-09 -1.516397e-09
-7.247036e-09 -4.146518e-09 3.230277e-09
-3.260461e-09 -5.359154e-09 3.118151e-10
-6.655218e-09 -1.313389e-09 7.955487e-11
-5.590567e-09 -1.520241e-09 -1.084612e-09
-3.930325e-09 -4.221258e-09 -3.567358e-09
-5.202038e-09 -2.800801e-09 -2.836844e-09
-4.057994e-09 -2.237344e-09 -3.936960e-09
-6.292368e-09 -2.618516e-09 2.399305e-09
-5.947930e-09 1.772063e-10 -2.441146e-09
-6.403724e-09 7.879948e-11 -9.502933e-10
-3.605252e-09 -4.631893e-09 1.879552e-09
-7.206466e-09 -1.716433e-09 1.259997e-09
-5.819868e-09 -3.780923e-09 4.264105e-09
-4.181165e-09 -2.030658e-09 -3.583124e-10
-7.717133e-09 -2.234691e-09 3.341649e-09
-2.370974e-09 -4.668666e-09 -2.335718e-09
-2.682223e-09 -2.953721e-09 -3.716740e-09
-2.117673e-09 -4.110714e-09 -3.278929e-09
-3.473879e-09 -3.497881e-09 -6.468893e-10
-6.011128e-09 -2.527861e-09 4.258030e-09
-4.291923e-09 -9.108721e-10 -2.303078e-09
-6.410292e-09 -5.975748e-10 2.031071e-09
-4.761560e-09 -3.991155e-10 3.610316e-10
-3.135529e-09 -1.899351e-09 -1.981478e-09
-4.124790e-09 -4.013445e-09 3.766614e-09
-4.946203e-09 3.811175e-10 -9.118661e-10
-3.927646e-09 9.071991e-10 -4.802640e-09
-3.949303e-09 3.243405e-10 -2.946982e-09
-4.812004e-09 1.140051e-09 -3.558547e-09
-4.136147e-09 -2.639617e-09 2.146282e-09
-1.645239e-09 -3.150319e-09 -6.196177e-10
-4.366296e-09 2.614784e-09 -3.969627e-09
-3.096641e-09 -1.539559e-09 -3.357815e-09
-3.278286e-09 -5.408810e-11 -2.912400e-09
-1.666578e-09 -1.580843e-09 -3.511652e-09
-3.442701e-09 4.835645e-10 -9.345494e-10
-3.055841e-09 -1.976615e-09 1.489297e-10
-3.148392e-09 5.193603e-11 -4.728075e-09
-1.807193e-09 -2.243382e-09 -1.864984e-09
-3.911815e-09 -3.196907e-10 8.141919e-09
-2.194428e-09 -1.663141e-09 7.535562e-09
-1.892361e-09 1.540301e-10 7.328043e-09
-1.436497e-09 6.491519e-10 -4.054783e-09
-5.875000e-09 -3.199896e-09 5.907817e-09
-4.176690e-09 2.322209e-09 -2.341321e-09
-3.653179e-09 -2.799392e-09 3.661338e-09
-4.445607e-09 -4.715881e-10 2.528145e-09
-3.894810e-09 -1.511840e-09 1.204660e-09
-5.296990e-09 2.300611e-09 -2.377064e-10
-4.811267e-09 7.607343e-10 1.332865e-09
-6.467651e-09 1.824257e-09 1.717843e-09
-4.595736e-09 -4.471339e-09 5.808592e-09
-4.730194e-09 -3.695643e-09 6.855801e-09
-5.988910e-09 -1.659994e-09 6.718728e-09
-2.027488e-09 1.772521e-09 1.938833e-09
7.260098e-11 2.373596e-09 3.645330e-09
-1.017786e-09 1.692777e-09 7.435264e-10
-4.678653e-09 6.610207e-10 -1.186989e-09
-3.144625e-09 -4.409342e-09 5.305810e-09
1.087442e-09 1.600147e-10 3.733874e-09
8.572969e-10 9.684045e-10 4.264861e-09
-4.574311e-11 6.189641e-10 5.583751e-09
-5.385034e-09 3.258267e-09 1.033204e-09
-4.752577e-09 -1.650109e-09 5.530931e-09
-1.105498e-09 2.663070e-11 -1.397604e-09
-4.478426e-09 -2.253782e-09 4.604683e-09
-3.318118e-09 1.521542e-10 5.477586e-10
-2.210897e-09 -4.740064e-10 -1.249118e-10
-5.861492e-09 2.518412e-09 3.888818e-09
-2.509683e-09 -5.074078e-09 3.650993e-09
-2.917846e-09 2.808630e-09 -3.278141e-09
-2.197917e-09 -3.686455e-09 2.619616e-09
-5.824845e-09 -3.924398e-10 5.434308e-09
-2.526837e-09 1.705825e-09 -2.147627e-09
-4.367316e-09 -2.932804e-11 4.769401e-09
-2.796929e-09 -2.861108e-09 4.849276e-09
-5.874614e-09 -6.329395e-10 4.212511e-09
-3.308450e-09 -9.920661e-10 4.184657e-09
-7.092939e-10 -1.391432e-09 1.107345e-10
-4.266434e-09 3.429999e-09 2.372423e-09
-3.136238e-09 2.838703e-09 -9.345530e-10
-3.401281e-10 -1.530340e-09 -3.286829e-09
2.523633e-10 -2.793324e-09 -2.724270e-09
-4.050461e-09 -2.406557e-09 7.885413e-09
-5.504288e-09 -1.438460e-09 7.932518e-09
-5.540585e-09 2.941235e-10 7.734510e-09
1.019548e-09 2.123905e-09 3.036337e-09
-3.504945e-09 1.153135e-09 8.068676e-10
-3.488911e-09 2.852282e-09 5.360410e-10
-6.422426e-09 1.479397e-09 4.911603e-09
-4.779556e-09 7.402464e-11 3.751150e-09
-3.728578e-09 -2.609520e-09 6.251499e-09
-4.366814e-11 -3.177434e-11 -3.237729e-09
-1.396340e-09 -2.726347e-09 3.601363e-09
-5.038990e-09 1.351859e-09 6.680980e-09
-3.531802e-09 6.798154e-10 3.363561e-09
-4.330758e-09 2.158357e-09 5.422814e-09
-4.258337e-09 1.625482e-09 3.099011e-09
-2.924049e-10 -3.899490e-09 2.626217e-09
7.933568e-10 -3.705615e-09 4.113167e-09
-3.962735e-09 2.236677e-09 1.775180e-09
3.658383e-10 -2.051983e-09 -6.239386e-10
-3.875080e-09 2.779098e-09 4.018413e-09
1.291858e-09 -1.158437e-09 -3.022849e-09
-6.761216e-10 -3.998877e-09 6.060727e-09
-7.633806e-10 -6.533262e-10 1.131683e-09
-2.320153e-09 -3.308830e-09 6.583086e-09
-1.851329e-09 -2.141163e-09 5.437440e-09
-1.544523e-09 -3.184226e-10 2.866439e-09
-1.387437e-09 -1.741465e-09 4.269803e-09
-2.526371e-09 1.281984e-09 3.667636e-09
1.566735e-09 -8.498484e-10 -1.405128e-09
5.019668e-10 7.490691e-10 -1.315504e-09
1.442888e-09 -5.661579e-10 6.007360e-09
-3.241696e-09 1.129027e-09 5.960452e-09
8.778932e-10 7.889192e-10 -3.091237e-09
1.005211e-09 -4.509891e-09 2.874472e-09
-8.557495e-10 -6.717868e-10 3.941487e-09
8.996282e-10 -1.172534e-09 -1.837766e-10
5.191065e-10 -3.753737e-09 5.417837e-09
-3.156459e-09 7.863157e-10 7.268184e-09
-2.644961e-09 2.113078e-09 5.499258e-09
-1.224404e-09 -1.835501e-09 6.496108e-09
1.991077e-09 -4.618135e-09 3.766675e-09
1.954580e-09 -3.672868e-09 2.297147e-09
-2.259107e-10 -1.494417e-09 2.739594e-09
-1.879990e-10 -2.866505e-09 6.792036e-09
1.448036e-09 -1.544856e-09 1.643833e-09
1.934484e-09 -7.599348e-11 -2.204811e-09
-8.673471e-10 1.640038e-09 3.537152e-09
-6.814528e-10 -1.403653e-09 7.966670e-09
1.583146e-09 4.282139e-10 -5.366443e-11
2.232425e-09 -3.449553e-09 4.751855e-09
2.775707e-09 -3.971338e-09 3.726590e-09
1.849180e-09 1.434924e-09 -1.255371e-09
5.237552e-10 -2.384385e-09 6.074702e-09
-1.807906e-09 5.414570e-10 5.173826e-09
2.944610e-09 -2.055410e-10 7.114563e-10
2.766689e-09 3.045388e-10 -3.832127e-09
1.644579e-09 -2.694646e-09 4.909336e-09
3.554648e-09 -2.859488e-09 2.547390e-09
3.298905e-09 7.561724e-10 -2.116786e-09
2.840135e-09 2.437727e-09 -2.530359e-09
2.947733e-09 2.016803e-09 -4.080552e-09
3.746378e-09 8.216507e-10 -3.958736e-09
4.103269e-09 1.510750e-09 -5.165203e-09
1.394974e-09 -1.420920e-09 4.324626e-09
6.927559e-10 -9.050729e-10 7.302054e-09
2.578339e-09 -6.101275e-10 2.038668e-09
1.116722e-09 1.516522e-09 5.295210e-10
2.153110e-09 1.772381e-09 -2.703665e-10
4.697873e-09 1.544030e-09 -3.430411e-09
2.211359e-10 1.318093e-09 7.422335e-09
1.413891e-09 1.166898e-09 2.047655e-09
2.744104e-09 -2.233783e-09 3.494426e-09
2.198036e-09 -3.338764e-10 3.435469e-09
3.604303e-09 -2.783294e-11 1.944607e-09
4.595624e-09 2.716527e-09 -3.540324e-09
3.166219e-09 8.774754e-10 -8.828766e-10
3.279214e-09 1.832097e-09 -1.601590e-09
4.767669e-09 2.520764e-09 -4.913721e-09
3.350084e-09 1.024887e-09 7.342783e-10
5.201346e-09 1.902201e-09 -5.885148e-09
5.440496e-09 1.586870e-09 -4.716662e-09
3.660775e-09 8.612196e-11 -2.397716e-10
3.094539e-09 8.179709e-10 2.619565e-09
6.249856e-09 1.407070e-09 -5.967958e-09
5.779226e-09 2.821402e-09 -3.933344e-09
7.024608e-09 3.012362e-09 -6.766010e-09
6.680644e-09 2.218078e-09 -4.910326e-09
7.189180e-09 2.200681e-09 -6.654100e-09
6.266369e-09 3.639761e-09 -4.708344e-09
7.456804e-09 3.589570e-09 -5.774682e-09
8.622274e-09 2.914044e-09 -5.841033e-09
8.383930e-09 3.079728e-09 -7.171552e-09
8.380965e-09 4.140881e-09 -7.072242e-09
9.301969e-09 3.248675e-09 -6.927196e-09
1.030793e-08 4.419954e-09 -7.817993e-09
1.022613e-08 4.924768e-09 -7.757458e-09
9.404216e-09 3.941317e-09 -6.208467e-09
1.102760e-08 4.007600e-09 -6.946857e-09
1.014231e-08 4.834068e-09 -6.464856e-09
1.134985e-08 5.068626e-09 -8.644663e-09
1.130228e-08 6.226559e-09 -7.752557e-09
1.117703e-08 5.420967e-09 -6.741281e-09
1.245427e-08 4.763041e-09 -8.325952e-09
1.125518e-08 6.743306e-09 -1.008373e-08
1.158524e-08 5.979979e-09 -1.043912e-08
1.111366e-08 6.097831e-09 -8.999424e-09
1.213242e-08 5.018808e-09 -9.105404e-09
1.169461e-08 5.870151e-09 -7.352351e-09
1.266895e-08 5.702516e-09 -8.012659e-09
1.336250e-08 5.055191e-09 -9.092821e-09
1.379649e-08 5.299400e-09 -1.056542e-08
1.215819e-08 7.021222e-09 -8.828288e-09
1.433050e-08 6.509416e-09 -1.015794e-08
1.373074e-08 6.253312e-09 -8.745476e-09
1.360883e-08 7.550498e-09 -9.289595e-09
2.001145e-09 1.603653e-09 -7.628689e-10
-4.390327e-09 -3.051100e-09 7.370607e-09
7.106894e-09 2.606521e-09 -6.710055e-09
7.240706e-09 3.300966e-09 -6.270346e-09
1.248521e-08 6.548583e-09 -1.132613e-08
2.233403e-09 1.270704e-09 6.318996e-10
-4.194452e-09 4.323410e-10 -9.232078e-10
8.039539e-09 3.251807e-09 -5.807857e-09
4.569459e-10 2.065100e-10 7.362195e-09
-3.017656e-10 3.878499e-10 -1.356554e-09
-3.206907e-09 -9.767196e-10 -2.446939e-09
7.704269e-09 3.046045e-09 -6.968781e-09
-4.494347e-09 1.731130e-09 -2.949934e-09
-5.639459e-09 1.292496e-09 1.525354e-09
-5.025113e-12 1.304221e-09 3.901007e-09
1.418931e-09 -9.935392e-10 5.165993e-09
1.026703e-08 4.672361e-09 -7.787726e-09
-4.492913e-09 -3.990625e-09 -2.541878e-09
-3.725823e-09 2.544479e-09 1.155610e-09
-3.225054e-09 -2.830250e-09 4.255307e-09
-5.926342e-09 2.541262e-09 1.375523e-09
1.110231e-08 4.714284e-09 -6.844069e-09
8.769637e-11 9.685286e-10 6.503043e-09
2.291494e-10 3.586474e-10 -2.276616e-09
4.649489e-10 1.671000e-09 3.955096e-09
-4.615501e-09 -1.951946e-09 5.067807e-09
-1.623835e-09 -2.433755e-09 4.519402e-09
-3.877673e-09 3.141141e-09 1.454232e-09
-2.174400e-09 -2.267282e-09 -3.614196e-09
1.322409e-08 6.613952e-09 -1.133978e-08
[...]
POINT_DATA 1605
VECTORS vector_force float
-3.120186e+02 -6.169006e+02 -6.776252e+02 
-3.635703e+02 -3.798110e+02 1.030610e+02 
-5.263973e+02 3.678690e+02 -2.029048e+02 
-1.937644e+02 6.780633e+02 2.436053e+02 
-2.560517e+02 -3.888075e+01 -5.752704e+02 
5.011873e+02 1.191075e+03 2.263523e+02 
1.122987e+01 6.056871e+02 -1.404433e+03 
4.362546e+02 1.315232e+03 -1.860339e+02 
5.860672e+01 -6.281053e+01 -1.039437e+03 
-2.008869e+02 -4.022942e+02 1.665911e+02 
7.938098e+01 -5.257600e+02 -2.832447e+02 
-2.810747e+02 -1.069371e+02 7.456824e+02 
-6.727294e+02 -4.071713e+02 -2.533997e+02 
-8.907247e+01 -5.676462e+02 -3.526880e+02 
4.836420e+02 -7.012627e+02 5.455557e+01 
1.605572e+02 7.005104e+02 -2.061429e+02 
1.710258e+02 -5.453248e+02 9.364503e+02 
8.596446e+02 -5.573062e+02 -8.245148e+01 
4.030153e+02 -1.043385e+02 -5.222727e+02 
1.239697e+02 -8.673423e+00 -1.059980e+03 
2.980515e+02 1.470921e+02 -4.470912e+02 
6.211178e+02 4.206367e+02 4.531480e+02 
2.274331e+02 -1.579005e+02 -5.664364e+02 
8.193985e+02 5.556514e+02 2.780004e+02 
6.506313e+02 4.184037e+02 4.998321e+02 
6.915959e+02 -3.674055e+02 5.855798e+02 
-9.277620e+01 -1.024620e+03 -3.857834e+02 
5.441117e+02 -5.563859e+02 -5.163594e+02 
-2.432252e+02 -1.453618e+02 -3.855707e+02 
9.514566e+02 1.942110e+02 -2.747787e+02 
-4.373944e+02 -6.503717e+02 1.648801e+02 
2.028780e+02 -2.553156e+02 -5.375750e+02 
3.072451e+02 -8.434106e+02 3.847475e+01 
-3.815983e+02 -2.792347e+02 -7.688651e+02 
1.138649e+03 -3.412801e+02 -1.125150e+02 
-4.897348e+02 2.754778e+02 -4.907219e+02 
1.666133e+02 -2.798493e+02 -3.187054e+02 
4.141775e+02 -2.271694e+02 2.781082e+02 
2.032485e+01 3.580749e+02 -2.894187e+01 
9.164637e+01 8.474779e+01 7.386731e+00 
1.378499e+02 1.050427e+03 1.610347e+01 
5.458212e+02 -3.952620e+02 3.655560e+02 
2.696396e+02 -1.373633e+02 -3.585423e+02 
6.459158e+01 6.206138e+02 7.170211e+01 
3.092476e+02 -5.321641e+02 -3.580150e+01 
-4.324834e+02 2.562328e+02 3.934524e+02 
1.097372e+02 1.065111e+01 1.936317e+02 
9.437174e+02 -7.612481e+02 -3.475786e+02 
-2.907406e+02 -2.412403e+01 7.029176e+02 
9.604904e+01 -4.080610e+00 3.461347e+01 
-1.495276e+02 -2.018423e+02 8.508915e+02 
-2.893343e+02 6.870904e+00 -1.844927e+02 
5.809974e+02 -7.853646e+01 7.158198e+02 
4.027657e+01 -1.967461e+01 2.863870e+02 
-7.434270e+02 -1.514791e+02 2.574202e+02 
-6.858873e+02 8.992670e+02 1.991811e+02 
-7.696278e+01 1.341477e+03 -1.484535e+02 
5.185008e+02 -6.415951e+01 -6.363401e+02 
5.838464e+01 -6.547034e+02 1.588408e+01 
-9.451471e+02 -3.135113e+02 -1.710290e+02 
-5.907756e+02 8.882649e+02 -1.584296e+02 
-7.569842e+02 -3.712951e+01 9.944005e+01 
-2.730229e+02 -3.036336e+02 -2.412292e+02 
-5.080122e+02 1.660133e+02 -2.474399e+02 
3.146544e+01 -1.575935e+02 -5.331902e+02 
1.766734e+02 2.589367e+01 -1.275746e+03 
2.075276e+02 -6.027300e+02 1.391778e+03 
-2.760639e+02 2.145792e+02 5.939158e+02 
-2.541646e+02 -1.527266e+02 2.612292e+02 
1.301523e+02 1.042586e+03 -1.533868e+02 
3.978218e+02 -4.979317e+02 -3.373040e+02 
5.202284e+02 4.733128e+02 2.313558e+02 
-7.929958e+02 -4.899213e+02 -1.457161e+03 
1.687907e+02 -9.108354e+01 4.645012e+02 
-2.608275e+02 -2.733113e+02 7.174019e+00 
-5.528351e+01 -4.589633e+02 4.474605e+02 
-6.063455e+01 -7.595110e+01 1.011591e+03 
1.717404e+02 3.678432e+02 -2.340008e+02 
-1.640061e+02 1.683231e+02 5.780420e+02 
-1.088933e+02 -2.870807e+02 1.483556e+01 
1.829578e+02 -3.006242e+02 3.306199e+02 
1.607903e+02 -4.040974e+02 1.045758e+03 
-2.472653e+02 -6.003729e+02 7.862227e+02 
-3.833438e+01 -2.571795e+02 -5.923700e+02 
6.940563e+02 -1.215879e+02 1.117772e+03 
-2.777858e+02 1.705635e+02 -1.017164e+03 
9.140416e+01 8.883417e+02 1.385894e+03 
2.155265e+01 1.553543e+02 8.392971e+02 
5.759954e+01 -4.748434e+01 -1.852106e+02 
-1.359729e+02 4.124110e+02 -3.053470e+02 
3.390999e+02 -2.195862e+02 4.006296e+02 
4.638574e+02 3.755621e+02 -4.833375e+02 
7.206998e+02 6.870685e+00 -3.668875e+02 
-3.342459e+02 7.680699e+01 -9.293074e+01 
-6.637511e+02 -4.235016e+01 2.440335e+01 
-1.495770e+02 -3.310616e+02 -4.502950e+02 
1.719171e+01 -5.815896e+02 3.494383e+02 
-4.446451e+01 -3.191480e+02 -5.990066e+02 
-2.986910e+02 8.954671e+02 9.368535e+02 
-2.871655e+02 -7.399976e+01 4.563675e+02 
8.510283e+02 2.439356e+02 1.369497e+03 
1.113111e+02 -1.179444e+03 1.466791e+02 
-2.310956e+02 -6.357278e+02 7.636079e+02 
-4.962188e+02 -4.267589e+02 -3.551619e+02 
8.606775e+00 -8.309492e+00 -3.657477e+02 
3.305284e+02 4.666513e+02 -2.939524e+02 
1.525017e+02 -9.708789e+01 5.581108e+02 
-2.026977e+02 -3.537938e+02 4.850926e+02 
4.305810e+02 6.488962e+02 2.906789e+02 
1.374840e+02 -5.216913e+02 1.734187e+02 
7.888015e+02 -5.059309e+02 3.641643e+02 
-6.138373e+02 -5.843009e+00 -1.069239e+02 
1.447671e+02 -2.416312e+02 -5.515855e+02 
-7.884726e+01 1.572935e+02 9.007843e+01 
7.506777e+01 -3.282230e+02 -7.234949e+02 
6.880229e+02 -1.698242e+02 -4.987099e+00 
-6.573459e+01 -4.080760e+02 -5.068756e+02 
9.761866e+02 3.101324e+02 2.361254e+01 
-1.011822e+03 4.271117e+02 -5.644575e+02 
-5.479038e+02 3.370554e+02 -1.140020e+02 
6.226829e+02 -4.840422e+02 9.475200e+01 
6.388420e+02 4.710228e+02 7.851400e+01 
4.142552e+01 5.474181e+02 7.832521e+02 
5.155931e+01 -3.753332e+02 1.830260e+02 
3.588046e+02 -5.603269e+01 8.794049e+02 
-1.003429e+01 -3.241540e+02 1.753563e+02 
-2.081867e+02 -8.734576e+02 8.140052e+01 
-1.449081e+01 6.488021e+01 3.446081e+02 
4.203125e+01 8.300781e+02 6.332392e+02 
-7.355253e+02 7.172552e+01 -3.394712e+01 
-1.533162e+02 3.353092e+02 7.983820e+01 
8.993288e+02 4.901699e+00 1.760317e+01 
2.532235e+02 -5.825696e+01 7.447056e+02 
-4.570277e+01 2.331898e+02 -4.189324e+02 
-3.355150e+02 4.644974e+02 2.407980e+02 
-5.769214e+02 2.059603e+02 -2.974905e+02 
-1.014552e+03 5.254912e+02 -3.004031e+02 
5.783188e+02 -1.720470e+02 -1.957982e+02 
-2.531880e+02 2.917965e+02 -4.064702e+01 
9.199288e+02 -8.364564e+01 9.564429e+01 
8.566884e+01 -2.769136e+02 4.002902e+02 
-2.920327e+02 -3.423259e+02 4.784335e+02 
2.071156e+02 -9.411283e+01 -6.537040e+02 
5.499940e+01 4.304403e+00 6.299348e+02 
-4.783779e+01 4.139039e+02 -1.493516e+02 
1.423851e+02 8.751061e+02 -2.584643e+00 
1.704001e+02 1.211331e+02 3.633647e+02 
-7.263312e+02 -2.307009e+02 -4.526874e+02 
-5.564416e+01 1.196526e+02 -5.979990e+02 
5.413679e+02 1.557570e+02 4.083877e+02 
-5.515132e+01 9.498167e+01 3.498467e+02 
-2.182613e+02 -1.835996e+02 -7.471538e+01 
-1.900004e+02 -6.049813e+02 -3.287215e+02 
-1.701545e+02 1.177817e+01 -4.728794e+02 
-5.145347e+02 -7.408782e+02 -2.444533e+02 
8.704089e+02 8.401564e+02 6.779616e+02 
1.472520e+02 -1.182446e+03 4.508271e+01 
7.926787e+02 -5.206825e+02 8.833220e+01 
2.020068e+02 2.774100e+02 -4.411926e+02 
3.455836e+02 3.056113e+02 5.679827e+02 
1.871160e+02 8.749342e+02 -6.658117e+02 
4.490026e+01 4.270328e+01 1.997107e+02 
6.658857e+02 3.687033e+02 1.380277e+02 
5.528731e+02 -7.342214e+02 -2.246220e+02 
2.941169e+02 1.204108e+02 6.760278e+02 
5.654652e+02 -7.885053e+02 2.529887e+02 
-3.066811e+02 -1.348855e+02 7.734839e+02 
2.453128e+02 1.102488e+03 7.853999e+02 
3.883216e+02 -5.601505e+02 -1.697003e+02 
5.714208e+02 2.637764e+02 -5.646443e+02 
-5.394671e+00 -1.701531e+02 2.427822e+02 
-1.194308e+02 1.995024e+02 2.627530e+02 
6.466192e+02 1.074931e+03 1.028892e+03 
2.471275e+02 -2.479399e+02 4.423274e+02 
1.857989e+02 -1.478716e+03 -8.320223e+01 
2.517218e+02 3.176484e+02 8.536743e+02 
1.063372e+02 -1.005172e+02 -6.543658e+02 
-9.113780e+02 -3.701168e+01 -1.872673e+02 
-4.620289e+02 6.339200e+02 3.431203e+02 
-2.178147e+02 -7.315586e+01 -1.153813e+02 
-4.799804e+01 2.640839e+02 -1.197245e+03 
-3.757598e+02 -4.659103e+02 1.464365e+03 
-7.170585e+01 -2.768414e+02 1.572268e+03 
-1.062128e+03 1.148353e+03 -3.468301e+02 
4.533369e+02 5.671226e+02 4.452954e+02 
-1.473468e+03 8.397104e+02 -1.843091e+02 
3.631208e+02 1.425284e+03 1.685553e+03 
-3.984064e+02 3.595220e+02 7.386024e+02 
-6.958606e+02 2.036471e+02 -1.873977e+02 
-1.525590e+02 6.272163e+02 8.114293e+01 
5.785213e+02 5.630227e+02 2.793893e+02 
-3.236890e+02 4.048409e+02 8.834132e+02 
4.927196e+02 8.533977e+02 3.040422e+02 
4.934583e+02 4.225720e+02 4.792861e+02 
-4.890481e+01 1.267141e+03 2.714860e+02 
4.906320e+02 5.800732e+01 -3.276541e+02 
-3.998144e+01 2.464792e+02 6.280735e+02 
-1.247570e+02 1.292897e+02 -8.050575e+02 
7.373205e+02 -6.293784e+02 3.987677e+02 
1.967149e+02 -7.213473e+02 5.845261e+02 
5.006831e+02 1.390314e+02 2.596409e+02 
5.019893e+02 1.050859e+03 -1.395267e+03 
6.370397e+02 1.656308e+03 -1.871841e+02 
4.744363e+02 3.808035e+02 -1.710002e+02 
1.929001e+02 -1.924538e+02 -2.499601e+02 
8.343109e+02 -3.326384e+02 3.528642e+02 
-8.958699e+01 1.257440e+03 -4.274987e+02 
-8.993286e+01 1.860164e+02 -4.246475e+02 
6.706770e+02 -2.109309e+02 -7.395473e+02 
7.395413e+02 5.297241e+02 -1.022926e+02 
5.822688e+02 -1.220177e+02 -8.305036e+02 
2.915646e+02 4.506541e+01 -3.391226e+02 
6.426560e+02 -3.601262e+02 -3.094609e+02 
0.000000e+00 0.000000e+00 0.000000e+00 
0.000000e+00 0.000000e+00 0.000000e+00 
0.000000e+00 0.000000e+00 0.000000e+00 
0.000000e+00 0.000000e+00 0.000000e+00 
0.000000e+00 0.000000e+00 0.000000e+00 
0.000000e+00 0.000000e+00 0.000000e+00 
0.000000e+00 0.000000e+00 0.000000e+00 
0.000000e+00 0.000000e+00 0.000000e+00 
0.000000e+00 0.000000e+00 0.000000e+00 
0.000000e+00 0.000000e+00 0.000000e+00 
0.000000e+00 0.000000e+00 0.000000e+00 
0.000000e+00 0.000000e+00 0.000000e+00 
0.000000e+00 0.000000e+00 0.000000e+00 
0.000000e+00 0.000000e+00 0.000000e+00 
0.000000e+00 0.000000e+00 0.000000e+00 
0.000000e+00 0.000000e+00 0.000000e+00 
0.000000e+00 0.000000e+00 0.000000e+00 
0.000000e+00 0.000000e+00 0.000000e+00 
0.000000e+00 0.000000e+00 0.000000e+00 
0.000000e+00 0.000000e+00 0.000000e+00 
0.000000e+00 0.000000e+00 0.000000e+00 
0.000000e+00 0.000000e+00 0.000000e+00 
0.000000e+00 0.000000e+00 0.000000e+00 
0.000000e+00 0.000000e+00 0.000000e+00 
0.000000e+00 0.000000e+00 0.000000e+00 
0.000000e+00 0.000000e+00 0.000000e+00 
0.000000e+00 0.000000e+00 0.000000e+00 
0.000000e+00 0.000000e+00 0.000000e+00 
0.000000e+00 0.000000e+00 0.000000e+00 
0.000000e+00 0.000000e+00 0.000000e+00 
0.000000e+00 0.000000e+00 0.000000e+00 
0.000000e+00 0.000000e+00 0.000000e+00 
0.000000e+00 0.000000e+00 0.000000e+00 
0.000000e+00 0.000000e+00 0.000000e+00 
0.000000e+00 0.000000e+00 0.000000e+00 
0.000000e+00 0.000000e+00 0.000000e+00 
0.000000e+00 0.000000e+00 0.000000e+00 
0.000000e+00 0.000000e+00 0.000000e+00 
0.000000e+00 0.000000e+00 0.000000e+00 
0.000000e+00 0.000000e+00 0.000000e+00 
0.000000e+00 0.000000e+00 0.000000e+00 
0.000000e+00 0.000000e+00 0.000000e+00 
0.000000e+00 0.000000e+00 0.000000e+00 
0.000000e+00 0.000000e+00 0.000000e+00 
0.000000e+00 0.000000e+00 0.000000e+00 
0.000000e+00 0.000000e+00 0.000000e+00 
0.000000e+00 0.000000e+00 0.000000e+00 
0.000000e+00 0.000000e+00 0.000000e+00 
0.000000e+00 0.000000e+00 0.000000e+00 
0.000000e+00 0.000000e+00 0.000000e+00 
0.000000e+00 0.000000e+00 0.000000e+00 
0.000000e+00 0.000000e+00 0.000000e+00 
0.000000e+00 0.000000e+00 0.000000e+00 
0.000000e+00 0.000000e+00 0.000000e+00 
0.000000e+00 0.000000e+00 0.000000e+00 
0.000000e+00 0.000000e+00 0.000000e+00 
0.000000e+00 0.000000e+00 0.000000e+00 
0.000000e+00 0.000000e+00 0.000000e+00 
0.000000e+00 0.000000e+00 0.000000e+00 
0.000000e+00 0.000000e+00 0.000000e+00 
0.000000e+00 0.000000e+00 0.000000e+00 
0.000000e+00 0.000000e+00 0.000000e+00 
0.000000e+00 0.000000e+00 0.000000e+00 
0.000000e+00 0.000000e+00 0.000000e+00 
0.000000e+00 0.000000e+00 0.000000e+00 
0.000000e+00 0.000000e+00 0.000000e+00 
0.000000e+00 0.000000e+00 0.000000e+00 
0.000000e+00 0.000000e+00 0.000000e+00 
0.000000e+00 0.000000e+00 0.000000e+00 
0.000000e+00 0.000000e+00 0.000000e+00 
0.000000e+00 0.000000e+00 0.000000e+00 
0.000000e+00 0.000000e+00 0.000000e+00 
0.000000e+00 0.000000e+00 0.000000e+00 
0.000000e+00 0.000000e+00 0.000000e+00 
0.000000e+00 0.000000e+00 0.000000e+00 
0.000000e+00 0.000000e+00 0.000000e+00 
0.000000e+00 0.000000e+00 0.000000e+00 
0.000000e+00 0.000000e+00 0.000000e+00 
0.000000e+00 0.000000e+00 0.000000e+00 
0.000000e+00 0.000000e+00 0.000000e+00 
0.000000e+00 0.000000e+00 0.000000e+00 
0.000000e+00 0.000000e+00 0.000000e+00 
0.000000e+00 0.000000e+00 0.000000e+00 
0.000000e+00 0.000000e+00 0.000000e+00 
0.000000e+00 0.000000e+00 0.000000e+00 
0.000000e+00 0.000000e+00 0.000000e+00 
0.000000e+00 0.000000e+00 0.000000e+00 
0.000000e+00 0.000000e+00 0.000000e+00 
0.000000e+00 0.000000e+00 0.000000e+00 
0.000000e+00 0.000000e+00 0.000000e+00 
0.000000e+00 0.000000e+00 0.000000e+00 
0.000000e+00 0.000000e+00 0.000000e+00 
0.000000e+00 0.000000e+00 0.000000e+00 
0.000000e+00 0.000000e+00 0.000000e+00 
0.000000e+00 0.000000e+00 0.000000e+00 
0.000000e+00 0.000000e+00 0.000000e+00 
0.000000e+00 0.000000e+00 0.000000e+00 
0.000000e+00 0.000000e+00 0.000000e+00 
0.000000e+00 0.000000e+00 0.000000e+00 
0.000000e+00 0.000000e+00 0.000000e+00 
0.000000e+00 0.000000e+00 0.000000e+00 
0.000000e+00 0.000000e+00 0.000000e+00 
0.000000e+00 0.000000e+00 0.000000e+00 
0.000000e+00 0.000000e+00 0.000000e+00 
0.000000e+00 0.000000e+00 0.000000e+00 
0.000000e+00 0.000000e+00 0.000000e+00 
0.000000e+00 0.000000e+00 0.000000e+00 
0.000000e+00 0.000000e+00 0.000000e+00 
0.000000e+00 0.000000e+00 0.000000e+00 
0.000000e+00 0.000000e+00 0.000000e+00 
0.000000e+00 0.000000e+00 0.000000e+00 
0.000000e+00 0.000000e+00 0.000000e+00 
0.000000e+00 0.000000e+00 0.000000e+00 
0.000000e+00 0.000000e+00 0.000000e+00 
0.000000e+00 0.000000e+00 0.000000e+00 
0.000000e+00 0.000000e+00 0.000000e+00 
0.000000e+00 0.000000e+00 0.000000e+00 
0.000000e+00 0.000000e+00 0.000000e+00 
0.000000e+00 0.000000e+00 0.000000e+00 
0.000000e+00 0.000000e+00 0.000000e+00 
0.000000e+00 0.000000e+00 0.000000e+00 
0.000000e+00 0.000000e+00 0.000000e+00 
0.000000e+00 0.000000e+00 0.000000e+00 
0.000000e+00 0.000000e+00 0.000000e+00 
0.000000e+00 0.000000e+00 0.000000e+00 
0.000000e+00 0.000000e+00 0.000000e+00 
0.000000e+00 0.000000e+00 0.000000e+00 
0.000000e+00 0.000000e+00 0.000000e+00 
0.000000e+00 0.000000e+00 0.000000e+00 
0.000000e+00 0.000000e+00 0.000000e+00 
0.000000e+00 0.000000e+00 0.000000e+00 
0.000000e+00 0.000000e+00 0.000000e+00 
0.000000e+00 0.000000e+00 0.000000e+00 
0.000000e+00 0.000000e+00 0.000000e+00 
0.000000e+00 0.000000e+00 0.000000e+00 
0.000000e+00 0.000000e+00 0.000000e+00 
0.000000e+00 0.000000e+00 0.000000e+00 
0.000000e+00 0.000000e+00 0.000000e+00 
0.000000e+00 0.000000e+00 0.000000e+00 
0.000000e+00 0.000000e+00 0.000000e+00 
0.000000e+00 0.000000e+00 0.000000e+00 
0.000000e+00 0.000000e+00 0.000000e+00 
0.000000e+00 0.000000e+00 0.000000e+00 
0.000000e+00 0.000000e+00 0.000000e+00 
0.000000e+00 0.000000e+00 0.000000e+00 
0.000000e+00 0.000000e+00 0.000000e+00 
0.000000e+00 0.000000e+00 0.000000e+00 
0.000000e+00 0.000000e+00 0.000000e+00 
0.000000e+00 0.000000e+00 0.000000e+00 
0.000000e+00 0.000000e+00 0.000000e+00 
0.000000e+00 0.000000e+00 0.000000e+00 
0.000000e+00 0.000000e+00 0.000000e+00 
0.000000e+00 0.000000e+00 0.000000e+00 
0.000000e+00 0.000000e+00 0.000000e+00 
0.000000e+00 0.000000e+00 0.000000e+00 
0.000000e+00 0.000000e+00 0.000000e+00 
0.000000e+00 0.000000e+00 0.000000e+00 
0.000000e+00 0.000000e+00 0.000000e+00 
0.000000e+00 0.000000e+00 0.000000e+00 
0.000000e+00 0.000000e+00 0.000000e+00 
0.000000e+00 0.000000e+00 0.000000e+00 
0.000000e+00 0.000000e+00 0.000000e+00 
0.000000e+00 0.000000e+00 0.000000e+00 
0.000000e+00 0.000000e+00 0.000000e+00 
0.000000e+00 0.000000e+00 0.000000e+00 
0.000000e+00 0.000000e+00 0.000000e+00 
0.000000e+00 0.000000e+00 0.000000e+00 
0.000000e+00 0.000000e+00 0.000000e+00 
0.000000e+00 0.000000e+00 0.000000e+00 
0.000000e+00 0.000000e+00 0.000000e+00 
0.000000e+00 0.000000e+00 0.000000e+00 
0.000000e+00 0.000000e+00 0.000000e+00 
0.000000e+00 0.000000e+00 0.000000e+00 
0.000000e+00 0.000000e+00 0.000000e+00 
0.000000e+00 0.000000e+00 0.000000e+00 
0.000000e+00 0.000000e+00 0.000000e+00 
0.000000e+00 0.000000e+00 0.000000e+00 
0.000000e+00 0.000000e+00 0.000000e+00 
0.000000e+00 0.000000e+00 0.000000e+00 
0.000000e+00 0.000000e+00 0.000000e+00 
0.000000e+00 0.000000e+00 0.000000e+00 
0.000000e+00 0.000000e+00 0.000000e+00 
0.000000e+00 0.000000e+00 0.000000e+00 
0.000000e+00 0.000000e+00 0.000000e+00 
0.000000e+00 0.000000e+00 0.000000e+00 
0.000000e+00 0.000000e+00 0.000000e+00 
0.000000e+00 0.000000e+00 0.000000e+00 
0.000000e+00 0.000000e+00 0.000000e+00 
0.000000e+00 0.000000e+00 0.000000e+00 
0.000000e+00 0.000000e+00 0.000000e+00 
0.000000e+00 0.000000e+00 0.000000e+00 
0.000000e+00 0.000000e+00 0.000000e+00 
0.000000e+00 0.000000e+00 0.000000e+00 
0.000000e+00 0.000000e+00 0.000000e+00 
0.000000e+00 0.000000e+00 0.000000e+00 
0.000000e+00 0.000000e+00 0.000000e+00 
0.000000e+00 0.000000e+00 0.000000e+00 
0.000000e+00 0.000000e+00 0.000000e+00 
0.000000e+00 0.000000e+00 0.000000e+00 
0.000000e+00 0.000000e+00 0.000000e+00 
0.000000e+00 0.000000e+00 0.000000e+00 
0.000000e+00 0.000000e+00 0.000000e+00 
0.000000e+00 0.000000e+00 0.000000e+00 
0.000000e+00 0.000000e+00 0.000000e+00 
0.000000e+00 0.000000e+00 0.000000e+00 
0.000000e+00 0.000000e+00 0.000000e+00 
0.000000e+00 0.000000e+00 0.000000e+00 
0.000000e+00 0.000000e+00 0.000000e+00 
0.000000e+00 0.000000e+00 0.000000e+00 
0.000000e+00 0.000000e+00 0.000000e+00 
0.000000e+00 0.000000e+00 0.000000e+00 
0.000000e+00 0.000000e+00 0.000000e+00 
0.000000e+00 0.000000e+00 0.000000e+00 
0.000000e+00 0.000000e+00 0.000000e+00 
0.000000e+00 0.000000e+00 0.000000e+00 
0.000000e+00 0.000000e+00 0.000000e+00 
0.000000e+00 0.000000e+00 0.000000e+00 
0.000000e+00 0.000000e+00 0.000000e+00 
0.000000e+00 0.000000e+00 0.000000e+00 
0.000000e+00 0.000000e+00 0.000000e+00 
0.000000e+00 0.000000e+00 0.000000e+00 
0.000000e+00 0.000000e+00 0.000000e+00 
0.000000e+00 0.000000e+00 0.000000e+00 
0.000000e+00 0.000000e+00 0.000000e+00 
0.000000e+00 0.000000e+00 0.000000e+00 
0.000000e+00 0.000000e+00 0.000000e+00 
0.000000e+00 0.000000e+00 0.000000e+00 
0.000000e+00 0.000000e+00 0.000000e+00 
0.000000e+00 0.000000e+00 0.000000e+00 
0.000000e+00 0.000000e+00 0.000000e+00 
0.000000e+00 0.000000e+00 0.000000e+00 
0.000000e+00 0.000000e+00 0.000000e+00 
0.000000e+00 0.000000e+00 0.000000e+00 
0.000000e+00 0.000000e+00 0.000000e+00 
0.000000e+00 0.000000e+00 0.000000e+00 
0.000000e+00 0.000000e+00 0.000000e+00 
0.000000e+00 0.000000e+00 0.000000e+00 
0.000000e+00 0.000000e+00 0.000000e+00 
0.000000e+00 0.000000e+00 0.000000e+00 
0.000000e+00 0.000000e+00 0.000000e+00 
0.000000e+00 0.000000e+00 0.000000e+00 
0.000000e+00 0.000000e+00 0.000000e+00 
0.000000e+00 0.000000e+00 0.000000e+00 
0.000000e+00 0.000000e+00 0.000000e+00 
0.000000e+00 0.000000e+00 0.000000e+00 
0.000000e+00 0.000000e+00 0.000000e+00 
0.000000e+00 0.000000e+00 0.000000e+00 
0.000000e+00 0.000000e+00 0.000000e+00 
0.000000e+00 0.000000e+00 0.000000e+00 
0.000000e+00 0.000000e+00 0.000000e+00 
0.000000e+00 0.000000e+00 0.000000e+00 
0.000000e+00 0.000000e+00 0.000000e+00 
0.000000e+00 0.000000e+00 0.000000e+00 
0.000000e+00 0.000000e+00 0.000000e+00 
0.000000e+00 0.000000e+00 0.000000e+00 
0.000000e+00 0.000000e+00 0.000000e+00 
0.000000e+00 0.000000e+00 0.000000e+00 
0.000000e+00 0.000000e+00 0.000000e+00 
0.000000e+00 0.000000e+00 0.000000e+00 
0.000000e+00 0.000000e+00 0.000000e+00 
0.000000e+00 0.000000e+00 0.000000e+00 
0.000000e+00 0.000000e+00 0.000000e+00 
0.000000e+00 0.000000e+00 0.000000e+00 
0.000000e+00 0.000000e+00 0.000000e+00 
0.000000e+00 0.000000e+00 0.000000e+00 
0.000000e+00 0.000000e+00 0.000000e+00 
0.000000e+00 0.000000e+00 0.000000e+00 
0.000000e+00 0.000000e+00 0.000000e+00 
0.000000e+00 0.000000e+00 0.000000e+00 
0.000000e+00 0.000000e+00 0.000000e+00 
0.000000e+00 0.000000e+00 0.000000e+00 
0.000000e+00 0.000000e+00 0.000000e+00 
0.000000e+00 0.000000e+00 0.000000e+00 
0.000000e+00 0.000000e+00 0.000000e+00 
0.000000e+00 0.000000e+00 0.000000e+00 
0.000000e+00 0.000000e+00 0.000000e+00 
0.000000e+00 0.000000e+00 0.000000e+00 
0.000000e+00 0.000000e+00 0.000000e+00 