# vtk DataFile Version 3.1
*description-name of input file* step:2901 
ASCII
DATASET UNSTRUCTURED_GRID
POINTS 1605 FLOAT
-7.201341e-09 -5.509444e-09 -1.191123e-10
-7.848144e-09 -4.638736e-09 -4.660820e-10
-6.249561e-09 -4.870614e-09 -6.914066e-10
-7.553081e-09 -4.129321e-09 2.176114e-09
-5.598159e-09 -6.064962e-09 -5.262175e-11
1.216202e-08 6.895979e-09 -1.070037e-08
1.379596e-08 6.994231e-09 -1.125670e-08
1.282376e-08 5.497946e-09 -1.216649e-08
-6.537587e-09 -6.214838e-09 9.063711e-10
-6.215964e-09 -2.825921e-09 7.657522e-10
-4.491487e-09 -4.662523e-09 -1.092087e-09
-6.179489e-09 -3.006386e-09 -2.712914e-10
-5.570179e-09 -5.194843e-09 2.225206e-09
-5.951894e-09 -3.525104e-09 1.620213e-09
-5.352866e-09 -3.473023e-09 -1.536614e-09
-7.440279e-09 -4.181215e-09 3.138413e-09
-3.615210e-09 -5.670327e-09 2.662498e-10
-6.479652e-09 -1.002788e-09 1.584324e-11
-5.501440e-09 -1.509646e-09 -7.066559e-10
-3.783968e-09 -3.957852e-09 -3.221264e-09
-5.237339e-09 -2.450158e-09 -3.045156e-09
-3.885360e-09 -1.983448e-09 -4.082233e-09
-6.478517e-09 -2.547591e-09 2.295256e-09
-5.648482e-09 -1.541250e-10 -2.424893e-09
-6.280284e-09 5.918619e-10 -1.024284e-09
-3.400309e-09 -4.763061e-09 1.959599e-09
-7.294110e-09 -1.038245e-09 1.221105e-09
-5.807944e-09 -3.296371e-09 3.907132e-09
-4.135223e-09 -2.096606e-09 -4.224884e-10
-8.122102e-09 -1.978230e-09 2.834127e-09
-2.552792e-09 -4.422310e-09 -2.335268e-09
-2.950889e-09 -3.239635e-09 -4.046489e-09
-2.173034e-09 -4.197035e-09 -3.478742e-09
-3.745984e-09 -3.648150e-09 -5.877995e-10
-6.102261e-09 -2.256322e-09 4.050857e-09
-4.196911e-09 -7.427820e-10 -2.231835e-09
-5.832293e-09 -6.415852e-10 2.232460e-09
-4.793218e-09 -2.573160e-10 6.756608e-10
-2.813668e-09 -2.143373e-09 -1.972833e-09
-4.103786e-09 -4.056776e-09 3.837354e-09
-4.741946e-09 7.843810e-11 -5.639935e-10
-3.981205e-09 8.304928e-10 -5.052227e-09
-4.056024e-09 6.229749e-10 -2.971599e-09
-4.953129e-09 1.086840e-09 -3.495225e-09
-4.198880e-09 -2.379506e-09 2.263288e-09
-1.547260e-09 -3.135777e-09 -6.791844e-10
-4.838955e-09 2.523274e-09 -4.391980e-09
-2.950416e-09 -1.358273e-09 -3.253767e-09
-3.022587e-09 3.360252e-10 -2.622179e-09
-1.642020e-09 -1.755120e-09 -3.241748e-09
-3.278656e-09 5.266121e-10 -7.622993e-10
-3.315162e-09 -2.074164e-09 2.916882e-10
-3.366409e-09 8.353624e-11 -4.978238e-09
-1.824764e-09 -2.309838e-09 -1.717252e-09
-3.679016e-09 -6.159886e-10 8.345057e-09
-2.033221e-09 -1.980887e-09 7.360725e-09
-1.769414e-09 4.664519e-10 7.317193e-09
-1.326378e-09 8.390228e-10 -3.946945e-09
-5.968546e-09 -3.074051e-09 6.182558e-09
-4.386200e-09 2.411595e-09 -2.545967e-09
-3.809967e-09 -2.772485e-09 3.940993e-09
-4.419196e-09 -4.648242e-10 2.697872e-09
-3.934562e-09 -1.417704e-09 1.411838e-09
-5.547247e-09 2.190619e-09 -4.247606e-10
-5.144733e-09 9.167829e-10 1.112349e-09
-6.624958e-09 1.719001e-09 2.046134e-09
-4.941847e-09 -4.302751e-09 5.895361e-09
-4.743505e-09 -3.849790e-09 7.287131e-09
-6.347588e-09 -1.679156e-09 6.598181e-09
-1.866532e-09 1.786843e-09 2.217697e-09
-2.584562e-10 2.026279e-09 4.031059e-09
-1.095012e-09 2.202930e-09 7.240043e-10
-4.719432e-09 4.297781e-10 -8.001266e-10
-3.042992e-09 -4.319337e-09 5.462822e-09
9.922025e-10 3.896002e-10 3.652518e-09
9.264512e-10 1.080338e-09 4.201696e-09
-1.981930e-10 7.842096e-10 5.589246e-09
-5.831734e-09 3.130434e-09 1.342098e-09
-4.930588e-09 -1.588417e-09 5.476788e-09
-1.129778e-09 2.847015e-11 -1.407969e-09
-4.691014e-09 -2.109762e-09 4.630730e-09
-3.410078e-09 2.457810e-10 7.740701e-10
-2.100653e-09 -4.560785e-10 6.888371e-11
-5.892718e-09 2.246640e-09 4.021035e-09
-2.558377e-09 -5.188497e-09 3.696890e-09
-3.013396e-09 2.525002e-09 -4.040293e-09
-2.152013e-09 -3.671917e-09 2.692292e-09
-5.761465e-09 -6.614459e-10 5.238545e-09
-2.703571e-09 1.986582e-09 -2.197886e-09
-4.218725e-09 -1.397686e-10 4.765333e-09
-2.943972e-09 -2.858866e-09 5.182099e-09
-5.727674e-09 -5.320892e-10 3.961760e-09
-3.146204e-09 -1.088204e-09 4.261559e-09
-5.100308e-10 -1.314534e-09 1.612700e-10
-4.620098e-09 3.349321e-09 2.563630e-09
-3.581840e-09 2.708295e-09 -8.022143e-10
-2.929269e-10 -1.480763e-09 -3.208991e-09
6.994100e-11 -2.688074e-09 -2.602436e-09
-3.939346e-09 -2.311711e-09 8.080412e-09
-5.298166e-09 -1.514923e-09 7.716064e-09
-5.320190e-09 1.482493e-10 7.657444e-09
6.844058e-10 2.192588e-09 3.076903e-09
-3.940197e-09 1.497001e-09 9.505485e-10
-4.111188e-09 3.008449e-09 3.119106e-10
-6.544368e-09 1.046503e-09 4.707999e-09
-4.314377e-09 1.183134e-10 3.381086e-09
-3.751590e-09 -2.709905e-09 6.406756e-09
-5.727514e-12 -5.838873e-11 -3.190369e-09
-1.319321e-09 -2.768344e-09 3.732878e-09
-4.962838e-09 1.220522e-09 6.738739e-09
-3.611020e-09 6.099910e-10 3.361102e-09
-4.199748e-09 2.188991e-09 5.579461e-09
-4.268693e-09 2.000713e-09 3.018515e-09
-2.420761e-10 -4.111575e-09 2.796232e-09
8.482477e-10 -3.535132e-09 4.477952e-09
-4.095447e-09 2.414283e-09 1.968069e-09
5.074314e-10 -1.684688e-09 -4.737570e-10
-4.382399e-09 2.822433e-09 4.234880e-09
1.322974e-09 -1.172849e-09 -3.636570e-09
-8.001948e-10 -4.002439e-09 6.305040e-09
-5.334627e-10 -5.399120e-10 1.255770e-09
-2.229249e-09 -3.156358e-09 6.398743e-09
-1.969086e-09 -2.211866e-09 5.534840e-09
-1.449306e-09 -4.047555e-10 2.720355e-09
-1.309559e-09 -1.756812e-09 4.454406e-09
-2.798975e-09 1.269016e-09 3.636150e-09
1.890199e-09 -1.157188e-09 -1.564148e-09
7.212605e-10 7.231102e-10 -1.339684e-09
1.215490e-09 -5.162793e-10 5.927187e-09
-3.115320e-09 1.167563e-09 5.911496e-09
7.887619e-10 5.300372e-10 -3.388783e-09
1.094996e-09 -4.710359e-09 3.217662e-09
-9.209414e-10 -7.586119e-10 4.023708e-09
1.085641e-09 -1.022488e-09 -1.446695e-10
6.682219e-10 -3.484835e-09 5.484916e-09
-2.880467e-09 8.693935e-10 7.276000e-09
-2.629625e-09 2.395481e-09 5.424013e-09
-1.141702e-09 -1.913215e-09 6.651235e-09
1.893601e-09 -4.544429e-09 3.827686e-09
2.000010e-09 -3.636761e-09 2.669632e-09
-4.064415e-10 -1.519744e-09 2.945850e-09
-2.821095e-10 -2.678640e-09 7.049090e-09
1.279204e-09 -1.742670e-09 1.870188e-09
1.842302e-09 -4.112349e-10 -2.407560e-09
-1.146925e-09 1.411174e-09 3.608892e-09
-7.949568e-10 -1.319173e-09 8.011277e-09
1.682403e-09 4.406365e-10 -5.337306e-11
2.611299e-09 -3.549590e-09 4.860203e-09
3.265895e-09 -3.925713e-09 3.656497e-09
1.700116e-09 9.604306e-10 -1.336524e-09
4.813730e-10 -2.113244e-09 6.375530e-09
-1.709842e-09 9.307574e-10 5.154121e-09
2.927131e-09 -6.715861e-10 1.046235e-09
2.636040e-09 4.207495e-10 -4.171701e-09
1.883801e-09 -2.732759e-09 5.152482e-09
3.708156e-09 -2.402976e-09 2.421633e-09
3.413981e-09 3.175510e-10 -2.218212e-09
2.832948e-09 2.411598e-09 -2.624594e-09
2.866310e-09 2.337249e-09 -4.325897e-09
3.596712e-09 1.073795e-09 -3.843853e-09
4.445001e-09 1.825748e-09 -5.443260e-09
1.356423e-09 -1.453101e-09 4.407449e-09
6.640261e-10 -7.273195e-10 7.384629e-09
2.738184e-09 -8.579959e-10 2.088755e-09
1.427751e-09 1.226785e-09 4.931179e-10
2.030929e-09 1.417678e-09 -3.937614e-10
4.580796e-09 1.551387e-09 -3.576319e-09
3.728951e-10 1.446568e-09 7.190895e-09
1.405889e-09 1.088454e-09 2.165309e-09
3.000633e-09 -2.217601e-09 3.570582e-09
2.157591e-09 4.870031e-11 3.386555e-09
3.491094e-09 -8.514229e-10 2.101477e-09
4.239676e-09 2.718771e-09 -3.547742e-09
2.971252e-09 6.790163e-10 -7.250785e-10
3.198005e-09 1.289817e-09 -1.937265e-09
4.719648e-09 2.721194e-09 -5.027821e-09
3.370012e-09 1.265823e-09 9.556622e-10
5.314471e-09 1.889454e-09 -5.878118e-09
5.123473e-09 1.514757e-09 -4.738978e-09
3.551107e-09 -1.586290e-10 1.353697e-10
3.235796e-09 1.133845e-09 2.717150e-09
6.556341e-09 1.418186e-09 -5.737394e-09
5.838820e-09 2.834870e-09 -4.172752e-09
7.572102e-09 2.989938e-09 -6.728837e-09
6.924628e-09 1.908670e-09 -4.858120e-09
7.283482e-09 2.259894e-09 -6.360507e-09
6.075248e-09 3.331877e-09 -5.304440e-09
7.188833e-09 3.169975e-09 -5.537883e-09
8.567773e-09 2.788263e-09 -5.610297e-09
8.540115e-09 2.993635e-09 -7.056200e-09
8.783061e-09 4.150631e-09 -6.505595e-09
9.879498e-09 3.075056e-09 -6.812632e-09
1.023095e-08 4.503758e-09 -7.829257e-09
1.029966e-08 5.119041e-09 -7.776039e-09
9.331019e-09 3.844316e-09 -5.681212e-09
1.120952e-08 4.555053e-09 -6.795246e-09
1.018891e-08 4.868107e-09 -6.140423e-09
1.077246e-08 4.969586e-09 -8.724154e-09
1.140827e-08 6.532913e-09 -7.560302e-09
1.146600e-08 5.262163e-09 -6.434025e-09
1.278563e-08 4.958344e-09 -8.160115e-09
1.125212e-08 6.604746e-09 -9.934275e-09
1.158471e-08 5.928685e-09 -1.042245e-08
1.117154e-08 6.057818e-09 -8.971386e-09
1.196607e-08 4.975599e-09 -8.867713e-09
1.166328e-08 5.801027e-09 -6.996601e-09
1.295666e-08 5.596131e-09 -8.046771e-09
1.330210e-08 4.792425e-09 -8.806992e-09
1.394693e-08 4.696749e-09 -1.058524e-08
1.177691e-08 6.688082e-09 -8.695424e-09
1.434770e-08 6.613103e-09 -1.043310e-08
1.405104e-08 6.450451e-09 -8.948204e-09
1.364437e-08 7.633549e-09 -9.184739e-09
1.865523e-09 1.189054e-09 -8.651428e-10
-4.341425e-09 -3.080751e-09 7.683772e-09
7.427792e-09 2.624916e-09 -6.544672e-09
7.380467e-09 3.079957e-09 -6.133360e-09
1.249289e-08 6.196962e-09 -1.143343e-08
2.398882e-09 1.246304e-09 7.243900e-10
-4.010301e-09 3.025251e-10 -6.631464e-10
7.878303e-09 2.979119e-09 -5.574090e-09
5.184606e-10 3.596245e-10 7.287762e-09
-2.042589e-10 3.757902e-10 -1.373826e-09
-2.918128e-09 -9.036737e-10 -2.297506e-09
8.056108e-09 2.991787e-09 -6.892518e-09
-4.669664e-09 1.749217e-09 -3.020596e-09
-5.884846e-09 1.317892e-09 1.579241e-09
-1.102371e-10 1.245756e-09 3.905294e-09
1.285957e-09 -9.846901e-10 5.167318e-09
1.026531e-08 4.811399e-09 -7.802648e-09
-4.568417e-09 -3.715437e-09 -2.378939e-09
-4.103318e-09 2.711366e-09 1.139990e-09
-3.376970e-09 -2.815675e-09 4.561546e-09
-6.228346e-09 2.424717e-09 1.694116e-09
1.133776e-08 4.908608e-09 -6.614636e-09
8.735104e-11 1.115389e-09 6.390070e-09
3.577665e-10 3.323607e-10 -2.265026e-09
3.339975e-10 1.553309e-09 4.116377e-09
-4.810801e-09 -1.849089e-09 5.053759e-09
-1.644204e-09 -2.490105e-09 4.633859e-09
-4.365643e-09 3.178885e-09 1.437771e-09
-2.296454e-09 -2.497378e-09 -3.644119e-09
1.330986e-08 6.246089e-09 -1.171160e-08
[...]
POINT_DATA 1605
VECTORS vector_force float
-2.616176e+02 1.526082e+02 1.281975e+02 
-1.090713e+03 -1.000772e+02 -2.794103e+02 
-6.574363e+02 -8.320995e+00 -3.975569e+02 
-9.672902e+01 -4.171790e+02 1.354335e+03 
1.127909e+02 1.550744e+02 -9.386787e+02 
-1.786512e+02 3.916245e+02 -4.354582e+02 
-5.835716e+02 4.354354e+02 -8.699464e+02 
5.047024e+02 1.284152e+02 -1.976895e+02 
1.627032e+01 1.639230e+02 -1.014078e+03 
5.116152e+02 -3.938970e+02 3.238945e+02 
2.283264e+02 -1.630286e+02 -9.161094e+01 
3.567664e+02 -5.196193e+02 2.986601e+02 
-2.018359e+02 1.917317e+02 -3.328408e+02 
-5.205258e+01 -1.281492e+02 -2.463999e+02 
-7.401318e+01 3.698516e+02 -4.015957e+02 
2.634421e+02 -1.419976e+02 1.130148e+02 
2.099979e+02 2.536780e+02 -4.185452e+02 
5.012936e+01 1.265288e+02 7.306101e+02 
-3.827237e+02 -1.331373e+02 -3.008063e+02 
3.767416e+02 1.679788e+02 4.541039e+00 
-4.376434e+02 -6.656100e+02 5.244541e+02 
-8.665942e+02 -6.039331e+02 -6.935573e+02 
5.960137e+01 -4.803419e+02 -2.898487e+02 
1.167739e+03 -1.967949e+02 8.113998e+02 
-1.090261e+02 8.564791e+02 -4.233527e+02 
-1.139350e+02 3.051604e+02 9.079415e+01 
4.624534e+02 -2.176181e+02 1.803008e+02 
3.470238e+02 -3.686336e+02 -3.008234e+02 
-6.563098e+02 1.592966e+02 -1.526668e+02 
-3.746344e+02 8.128708e+01 -4.043610e+02 
-2.784200e+02 8.416757e+02 3.259582e+02 
1.047697e+02 4.220518e+01 1.571037e+02 
4.752476e+02 1.596671e+03 4.069225e+02 
-1.598944e+02 1.035527e+02 1.508082e+02 
1.891864e+02 -3.071134e+02 -8.462432e+02 
-2.346083e+02 -7.153018e+02 -4.826767e+02 
-1.985812e+02 1.910750e+02 -1.761958e+02 
2.957883e+02 2.520643e+02 4.836241e+01 
-3.644798e+02 -2.408895e+02 3.811282e+02 
-1.906482e+02 5.052079e+01 -3.107084e+02 
1.795307e+02 3.554949e+02 4.880459e+02 
1.320872e+03 -3.728432e+02 6.115241e+02 
2.059843e+02 1.420935e+03 7.573757e+02 
3.600226e+02 9.218237e+02 -6.340803e+02 
6.946787e+01 -6.116647e+00 9.779448e+01 
-3.137750e+02 -2.721557e+02 -1.138354e+02 
1.425336e+03 1.241727e+03 6.249950e+02 
2.905218e+02 2.868075e+02 -5.434570e+02 
4.709770e+02 5.451697e+02 -1.821768e+02 
2.708520e+02 6.644694e+01 4.445187e+02 
4.604756e+02 9.241189e+02 3.039390e+02 
-6.846661e+02 -1.162240e+02 2.163264e+02 
5.981817e+02 -1.419292e+03 9.348983e+02 
-2.101108e+02 4.798521e+01 7.858947e+01 
-3.948218e+02 -2.125719e+02 3.418854e+02 
-5.331016e+02 -6.307456e+02 3.620381e+02 
3.198098e+02 1.324743e+02 -4.462981e+02 
2.324731e+01 7.494847e+01 1.252501e+03 
3.935632e+02 -3.855854e+02 -3.641966e+02 
4.485016e+02 1.096168e+03 -4.637213e+01 
1.506652e+02 -2.596640e+02 -1.937608e+02 
3.481697e+02 2.971344e+02 -2.725183e+02 
3.031570e+02 -3.136947e+02 2.222589e+02 
2.828637e+02 8.259963e+02 2.987641e+02 
-4.969333e+02 4.754047e+02 -2.717121e+02 
-7.399772e+01 -7.692125e+02 1.408106e+03 
-4.550493e+02 5.928291e+02 -2.425445e+01 
-1.248901e+02 -8.792063e+00 -2.901633e+02 
-1.236428e+01 9.452850e+01 -8.361370e+02 
6.411017e+02 1.453578e+03 3.059138e+02 
-2.004573e+02 -4.968864e+02 3.113648e+02 
5.102036e+02 1.284413e+02 3.239020e+02 
-9.226504e+01 3.611169e+02 3.866579e+02 
-5.885025e+02 -3.080626e+02 7.218241e+02 
1.170104e+02 -6.192508e+02 -2.132268e+02 
3.997673e+02 -4.423796e+02 -6.950411e+02 
7.736549e+02 -6.140152e+01 -4.929645e+02 
-9.110724e+02 -5.804042e+02 6.677568e+02 
2.098561e+02 -3.149743e+02 7.999649e+01 
-3.954419e+02 2.487498e+02 1.051199e+03 
2.007692e+02 -3.227261e+02 -5.969438e+02 
8.842549e+02 5.180217e+02 7.403784e+02 
-5.459252e+02 2.380664e+02 4.234291e+02 
5.312631e+02 -4.701329e+02 -4.421020e+01 
1.890733e+02 -3.112685e+02 -3.787403e+02 
4.291258e+02 -4.532898e+02 -4.631035e+02 
6.895075e+02 3.831330e+02 4.060099e+02 
5.547203e+02 -6.692974e+02 -8.330109e+02 
1.109498e+03 5.056105e+02 3.482029e+02 
5.043953e+02 -3.538155e+02 1.684570e+02 
4.321305e+01 -2.462206e+01 1.560128e+02 
1.517898e+03 -1.929761e+02 -1.135240e+03 
-1.348819e+02 -6.333986e+02 -4.292882e+01 
2.109441e+02 -5.091449e+02 6.364934e+02 
-2.042813e+02 -1.534896e+03 1.132062e+03 
-1.153676e+02 8.034402e+02 2.438628e+02 
2.562695e+02 -2.061844e+02 4.813607e+02 
2.429281e+02 -1.709182e+02 -1.684160e+02 
-2.554181e+02 -3.371696e+02 3.629740e+02 
-7.640633e+02 -1.574875e+02 -6.944471e+02 
-1.643097e+01 -4.871346e+02 1.003075e+03 
6.055047e+02 2.667624e+02 2.377043e+02 
-7.681000e+02 -3.559284e+02 -3.490645e+02 
-6.636411e-01 9.488361e+00 -3.945100e+02 
3.506937e+02 -4.115617e+01 2.774012e+02 
6.120545e+02 -1.060281e+02 -5.260002e+02 
2.080265e+01 -3.026113e+02 1.818579e+02 
1.316287e+02 4.847487e+02 3.959816e+02 
1.604878e+02 -2.548196e+01 -2.884683e+02 
7.424336e+02 -2.668151e+02 -4.602464e+01 
-4.223537e+02 5.185206e+01 -3.132624e+02 
-3.918717e+02 -3.403868e+02 -1.210130e+02 
1.007907e+03 1.420739e+02 5.672834e+01 
3.258095e+02 -6.331086e+02 2.319037e+02 
-1.028245e+02 -3.702257e+02 1.833056e+02 
5.444683e+02 -2.501742e+02 -7.878719e+01 
-1.500184e+02 -1.207865e+01 8.738856e+02 
3.772649e+01 -8.857889e+01 -1.559260e+02 
-8.954422e+01 3.039068e+02 1.210177e+03 
4.908100e+01 7.255587e+02 -4.359684e+02 
1.956773e+02 -2.881901e+02 4.068675e+02 
5.175498e+01 2.551529e+02 -4.163538e+02 
1.517305e+02 1.859148e+02 2.533568e+01 
4.681190e+01 -3.377500e+02 -2.857264e+02 
-9.892263e+01 -4.002100e+02 -5.083453e+01 
-8.268475e+02 8.039233e+01 1.927598e+02 
3.383768e+02 -7.068833e+02 1.546619e+03 
-5.937763e+01 -3.068239e+02 7.259973e+02 
8.055227e+02 -3.023407e+02 4.427941e+01 
-3.064514e+02 -2.135848e+02 1.651026e+02 
4.472749e+02 -9.103746e+01 3.564493e+02 
1.111851e+03 -1.624855e+03 2.630439e+02 
6.870320e+01 -7.302662e+02 -1.844892e+02 
-4.630574e+02 -2.801995e+02 8.012106e+02 
-6.784386e+01 -7.949443e+01 -3.071570e+02 
2.194449e+02 -1.859676e+02 5.594295e+02 
6.107053e+02 4.316611e+02 -4.737860e+01 
-7.679441e+01 5.754505e+02 4.109470e+02 
3.645415e+02 -9.512949e+02 8.190216e+02 
-6.645659e+02 -1.074339e+03 1.461416e+02 
2.368440e+01 -8.269282e+02 1.096549e+02 
1.293059e+03 1.595159e+01 -5.026545e+02 
-5.739044e+01 -3.540840e+02 3.223072e+00 
1.401024e+02 -2.639457e+02 7.277820e+02 
-1.090914e+02 -1.945706e+02 3.019951e+02 
4.235183e+02 1.113059e+03 -1.589442e+02 
-3.473468e+02 3.837544e+02 1.796237e+01 
3.685567e+02 -8.335934e+02 3.838437e+02 
4.377705e+02 -1.264042e+03 7.000841e+02 
-4.056562e+02 -3.761734e+02 3.006404e+02 
5.248466e+02 -1.395617e+02 -2.824584e+02 
4.135985e+02 -4.046274e+02 -1.973598e+02 
-1.147101e+02 1.572566e+02 -1.150781e+03 
6.900334e+02 -3.881498e+02 7.147719e+02 
-2.041857e+02 -8.370778e+02 5.748321e+01 
2.384433e+02 4.401810e+02 -2.735467e+02 
4.374642e+02 6.603117e+02 4.883057e+02 
-6.256689e+02 -3.766695e+02 2.421392e+02 
-1.037351e+02 -6.874192e+02 2.496239e+01 
2.010434e+02 -2.832710e+02 1.193765e+01 
-2.324220e+02 1.856140e+02 5.185622e+02 
4.348108e+02 -8.351279e+02 6.134589e+01 
3.947621e+01 -1.633430e+02 -1.347700e+03 
4.311939e+02 6.245999e+02 -2.237296e+02 
-9.140777e+01 1.847120e+02 2.113977e+02 
1.184153e+03 -5.014544e+02 -4.450906e+02 
5.362995e+02 6.080956e+02 -3.288534e+02 
1.053009e+03 4.654935e+02 -1.097221e+03 
-3.524360e+02 -7.211835e+02 2.868464e+02 
-2.741653e+02 -1.699266e+02 -1.539677e+02 
4.760003e+02 -2.622818e+02 7.846158e+02 
1.143720e+02 2.061442e+02 -1.411098e+03 
-1.270369e+03 9.053951e+02 2.798770e+02 
6.221941e+01 -1.154809e+03 8.933965e+01 
4.882413e+02 2.870838e+02 8.586248e+01 
-9.280977e-01 4.537236e+02 1.080370e+02 
3.289911e+02 -7.766393e+02 3.270089e+02 
-3.988768e+02 5.894857e+02 1.090810e+03 
-2.236013e+02 -3.494928e+01 2.454947e+02 
-5.880217e+02 -5.896578e+02 -5.703695e+02 
-2.184359e+02 -5.204748e+02 2.179989e+02 
-9.686157e+02 3.537327e+02 4.331548e+02 
1.256143e+02 2.728476e+01 -3.626164e+02 
5.131861e+02 -4.116157e+02 -1.122029e+03 
-6.335762e+02 2.356172e+02 6.930350e+02 
6.966259e+01 -2.168204e+02 -3.409045e+02 
7.390915e+02 -9.570563e+00 -1.105874e+03 
-5.707569e+02 -4.398895e+02 -7.012968e+02 
2.350599e+02 4.864498e+02 -3.976395e+01 
6.982184e+02 6.025587e+02 6.137976e+02 
-2.156352e+02 3.610056e+02 8.886999e+01 
-3.972005e+02 -1.852616e+02 4.132053e+02 
-2.232387e+02 7.769780e+02 -9.773789e+01 
5.751205e+02 9.498417e+02 9.259630e+02 
-9.269019e+02 4.610590e+02 3.511154e+02 
-6.274462e+02 -2.974401e+02 -4.485136e+02 
-3.524313e+02 2.192986e+02 -2.970680e+02 
-1.055922e+03 1.114208e+03 -2.240239e+02 
3.358211e+02 6.285147e+02 -8.139207e+02 
-3.107266e+01 -2.575964e+02 -2.557643e+02 
1.150843e+03 7.254277e+02 -2.131485e+02 
-2.072668e+02 3.238358e+02 -6.417350e+02 
2.748675e+02 5.776190e+02 7.377163e+02 
-8.581325e+01 1.727114e+02 -7.357249e+02 
-8.170773e+02 -2.340092e+02 -8.262229e+02 
1.694587e+02 -1.764245e+02 -5.163540e+02 
6.469605e+02 5.571835e+01 -8.266406e+02 
-1.135462e+02 -3.644702e+02 -4.967014e+01 
-6.096304e+02 4.816643e+02 -1.333950e+03 
-1.293309e+02 4.109606e+02 -2.050313e+02 
-7.948212e+02 5.555044e+02 -2.774564e+02 
-7.862533e+02 -7.758734e+02 -6.821734e+02 
-1.345278e+01 2.162071e+02 -3.524245e+02 
0.000000e+00 0.000000e+00 0.000000e+00 
0.000000e+00 0.000000e+00 0.000000e+00 
0.000000e+00 0.000000e+00 0.000000e+00 
0.000000e+00 0.000000e+00 0.000000e+00 
0.000000e+00 0.000000e+00 0.000000e+00 
0.000000e+00 0.000000e+00 0.000000e+00 
0.000000e+00 0.000000e+00 0.000000e+00 
0.000000e+00 0.000000e+00 0.000000e+00 
0.000000e+00 0.000000e+00 0.000000e+00 
0.000000e+00 0.000000e+00 0.000000e+00 
0.000000e+00 0.000000e+00 0.000000e+00 
0.000000e+00 0.000000e+00 0.000000e+00 
0.000000e+00 0.000000e+00 0.000000e+00 
0.000000e+00 0.000000e+00 0.000000e+00 
0.000000e+00 0.000000e+00 0.000000e+00 
0.000000e+00 0.000000e+00 0.000000e+00 
0.000000e+00 0.000000e+00 0.000000e+00 
0.000000e+00 0.000000e+00 0.000000e+00 
0.000000e+00 0.000000e+00 0.000000e+00 
0.000000e+00 0.000000e+00 0.000000e+00 
0.000000e+00 0.000000e+00 0.000000e+00 
0.000000e+00 0.000000e+00 0.000000e+00 
0.000000e+00 0.000000e+00 0.000000e+00 
0.000000e+00 0.000000e+00 0.000000e+00 
0.000000e+00 0.000000e+00 0.000000e+00 
0.000000e+00 0.000000e+00 0.000000e+00 
0.000000e+00 0.000000e+00 0.000000e+00 
0.000000e+00 0.000000e+00 0.000000e+00 
0.000000e+00 0.000000e+00 0.000000e+00 
0.000000e+00 0.000000e+00 0.000000e+00 
0.000000e+00 0.000000e+00 0.000000e+00 
0.000000e+00 0.000000e+00 0.000000e+00 
0.000000e+00 0.000000e+00 0.000000e+00 
0.000000e+00 0.000000e+00 0.000000e+00 
0.000000e+00 0.000000e+00 0.000000e+00 
0.000000e+00 0.000000e+00 0.000000e+00 
0.000000e+00 0.000000e+00 0.000000e+00 
0.000000e+00 0.000000e+00 0.000000e+00 
0.000000e+00 0.000000e+00 0.000000e+00 
0.000000e+00 0.000000e+00 0.000000e+00 
0.000000e+00 0.000000e+00 0.000000e+00 
0.000000e+00 0.000000e+00 0.000000e+00 
0.000000e+00 0.000000e+00 0.000000e+00 
0.000000e+00 0.000000e+00 0.000000e+00 
0.000000e+00 0.000000e+00 0.000000e+00 
0.000000e+00 0.000000e+00 0.000000e+00 
0.000000e+00 0.000000e+00 0.000000e+00 
0.000000e+00 0.000000e+00 0.000000e+00 
0.000000e+00 0.000000e+00 0.000000e+00 
0.000000e+00 0.000000e+00 0.000000e+00 
0.000000e+00 0.000000e+00 0.000000e+00 
0.000000e+00 0.000000e+00 0.000000e+00 
0.000000e+00 0.000000e+00 0.000000e+00 
0.000000e+00 0.000000e+00 0.000000e+00 
0.000000e+00 0.000000e+00 0.000000e+00 
0.000000e+00 0.000000e+00 0.000000e+00 
0.000000e+00 0.000000e+00 0.000000e+00 
0.000000e+00 0.000000e+00 0.000000e+00 
0.000000e+00 0.000000e+00 0.000000e+00 
0.000000e+00 0.000000e+00 0.000000e+00 
0.000000e+00 0.000000e+00 0.000000e+00 
0.000000e+00 0.000000e+00 0.000000e+00 
0.000000e+00 0.000000e+00 0.000000e+00 
0.000000e+00 0.000000e+00 0.000000e+00 
0.000000e+00 0.000000e+00 0.000000e+00 
0.000000e+00 0.000000e+00 0.000000e+00 
0.000000e+00 0.000000e+00 0.000000e+00 
0.000000e+00 0.000000e+00 0.000000e+00 
0.000000e+00 0.000000e+00 0.000000e+00 
0.000000e+00 0.000000e+00 0.000000e+00 
0.000000e+00 0.000000e+00 0.000000e+00 
0.000000e+00 0.000000e+00 0.000000e+00 
0.000000e+00 0.000000e+00 0.000000e+00 
0.000000e+00 0.000000e+00 0.000000e+00 
0.000000e+00 0.000000e+00 0.000000e+00 
0.000000e+00 0.000000e+00 0.000000e+00 
0.000000e+00 0.000000e+00 0.000000e+00 
0.000000e+00 0.000000e+00 0.000000e+00 
0.000000e+00 0.000000e+00 0.000000e+00 
0.000000e+00 0.000000e+00 0.000000e+00 
0.000000e+00 0.000000e+00 0.000000e+00 
0.000000e+00 0.000000e+00 0.000000e+00 
0.000000e+00 0.000000e+00 0.000000e+00 
0.000000e+00 0.000000e+00 0.000000e+00 
0.000000e+00 0.000000e+00 0.000000e+00 
0.000000e+00 0.000000e+00 0.000000e+00 
0.000000e+00 0.000000e+00 0.000000e+00 
0.000000e+00 0.000000e+00 0.000000e+00 
0.000000e+00 0.000000e+00 0.000000e+00 
0.000000e+00 0.000000e+00 0.000000e+00 
0.000000e+00 0.000000e+00 0.000000e+00 
0.000000e+00 0.000000e+00 0.000000e+00 
0.000000e+00 0.000000e+00 0.000000e+00 
0.000000e+00 0.000000e+00 0.000000e+00 
0.000000e+00 0.000000e+00 0.000000e+00 
0.000000e+00 0.000000e+00 0.000000e+00 
0.000000e+00 0.000000e+00 0.000000e+00 
0.000000e+00 0.000000e+00 0.000000e+00 
0.000000e+00 0.000000e+00 0.000000e+00 
0.000000e+00 0.000000e+00 0.000000e+00 
0.000000e+00 0.000000e+00 0.000000e+00 
0.000000e+00 0.000000e+00 0.000000e+00 
0.000000e+00 0.000000e+00 0.000000e+00 
0.000000e+00 0.000000e+00 0.000000e+00 
0.000000e+00 0.000000e+00 0.000000e+00 
0.000000e+00 0.000000e+00 0.000000e+00 
0.000000e+00 0.000000e+00 0.000000e+00 
0.000000e+00 0.000000e+00 0.000000e+00 
0.000000e+00 0.000000e+00 0.000000e+00 
0.000000e+00 0.000000e+00 0.000000e+00 
0.000000e+00 0.000000e+00 0.000000e+00 
0.000000e+00 0.000000e+00 0.000000e+00 
0.000000e+00 0.000000e+00 0.000000e+00 
0.000000e+00 0.000000e+00 0.000000e+00 
0.000000e+00 0.000000e+00 0.000000e+00 
0.000000e+00 0.000000e+00 0.000000e+00 
0.000000e+00 0.000000e+00 0.000000e+00 
0.000000e+00 0.000000e+00 0.000000e+00 
0.000000e+00 0.000000e+00 0.000000e+00 
0.000000e+00 0.000000e+00 0.000000e+00 
0.000000e+00 0.000000e+00 0.000000e+00 
0.000000e+00 0.000000e+00 0.000000e+00 
0.000000e+00 0.000000e+00 0.000000e+00 
0.000000e+00 0.000000e+00 0.000000e+00 
0.000000e+00 0.000000e+00 0.000000e+00 
0.000000e+00 0.000000e+00 0.000000e+00 
0.000000e+00 0.000000e+00 0.000000e+00 
0.000000e+00 0.000000e+00 0.000000e+00 
0.000000e+00 0.000000e+00 0.000000e+00 
0.000000e+00 0.000000e+00 0.000000e+00 
0.000000e+00 0.000000e+00 0.000000e+00 
0.000000e+00 0.000000e+00 0.000000e+00 
0.000000e+00 0.000000e+00 0.000000e+00 
0.000000e+00 0.000000e+00 0.000000e+00 
0.000000e+00 0.000000e+00 0.000000e+00 
0.000000e+00 0.000000e+00 0.000000e+00 
0.000000e+00 0.000000e+00 0.000000e+00 
0.000000e+00 0.000000e+00 0.000000e+00 
0.000000e+00 0.000000e+00 0.000000e+00 
0.000000e+00 0.000000e+00 0.000000e+00 
0.000000e+00 0.000000e+00 0.000000e+00 
0.000000e+00 0.000000e+00 0.000000e+00 
0.000000e+00 0.000000e+00 0.000000e+00 
0.000000e+00 0.000000e+00 0.000000e+00 
0.000000e+00 0.000000e+00 0.000000e+00 
0.000000e+00 0.000000e+00 0.000000e+00 
0.000000e+00 0.000000e+00 0.000000e+00 
0.000000e+00 0.000000e+00 0.000000e+00 
0.000000e+00 0.000000e+00 0.000000e+00 
0.000000e+00 0.000000e+00 0.000000e+00 
0.000000e+00 0.000000e+00 0.000000e+00 
0.000000e+00 0.000000e+00 0.000000e+00 
0.000000e+00 0.000000e+00 0.000000e+00 
0.000000e+00 0.000000e+00 0.000000e+00 
0.000000e+00 0.000000e+00 0.000000e+00 
0.000000e+00 0.000000e+00 0.000000e+00 
0.000000e+00 0.000000e+00 0.000000e+00 
0.000000e+00 0.000000e+00 0.000000e+00 
0.000000e+00 0.000000e+00 0.000000e+00 
0.000000e+00 0.000000e+00 0.000000e+00 
0.000000e+00 0.000000e+00 0.000000e+00 
0.000000e+00 0.000000e+00 0.000000e+00 
0.000000e+00 0.000000e+00 0.000000e+00 
0.000000e+00 0.000000e+00 0.000000e+00 
0.000000e+00 0.000000e+00 0.000000e+00 
0.000000e+00 0.000000e+00 0.000000e+00 
0.000000e+00 0.000000e+00 0.000000e+00 
0.000000e+00 0.000000e+00 0.000000e+00 
0.000000e+00 0.000000e+00 0.000000e+00 
0.000000e+00 0.000000e+00 0.000000e+00 
0.000000e+00 0.000000e+00 0.000000e+00 
0.000000e+00 0.000000e+00 0.000000e+00 
0.000000e+00 0.000000e+00 0.000000e+00 
0.000000e+00 0.000000e+00 0.000000e+00 
0.000000e+00 0.000000e+00 0.000000e+00 
0.000000e+00 0.000000e+00 0.000000e+00 
0.000000e+00 0.000000e+00 0.000000e+00 
0.000000e+00 0.000000e+00 0.000000e+00 
0.000000e+00 0.000000e+00 0.000000e+00 
0.000000e+00 0.000000e+00 0.000000e+00 
0.000000e+00 0.000000e+00 0.000000e+00 
0.000000e+00 0.000000e+00 0.000000e+00 
0.000000e+00 0.000000e+00 0.000000e+00 
0.000000e+00 0.000000e+00 0.000000e+00 
0.000000e+00 0.000000e+00 0.000000e+00 
0.000000e+00 0.000000e+00 0.000000e+00 
0.000000e+00 0.000000e+00 0.000000e+00 
0.000000e+00 0.000000e+00 0.000000e+00 
0.000000e+00 0.000000e+00 0.000000e+00 
0.000000e+00 0.000000e+00 0.000000e+00 
0.000000e+00 0.000000e+00 0.000000e+00 
0.000000e+00 0.000000e+00 0.000000e+00 
0.000000e+00 0.000000e+00 0.000000e+00 
0.000000e+00 0.000000e+00 0.000000e+00 
0.000000e+00 0.000000e+00 0.000000e+00 
0.000000e+00 0.000000e+00 0.000000e+00 
0.000000e+00 0.000000e+00 0.000000e+00 
0.000000e+00 0.000000e+00 0.000000e+00 
0.000000e+00 0.000000e+00 0.000000e+00 
0.000000e+00 0.000000e+00 0.000000e+00 
0.000000e+00 0.000000e+00 0.000000e+00 
0.000000e+00 0.000000e+00 0.000000e+00 
0.000000e+00 0.000000e+00 0.000000e+00 
0.000000e+00 0.000000e+00 0.000000e+00 
0.000000e+00 0.000000e+00 0.000000e+00 
0.000000e+00 0.000000e+00 0.000000e+00 
0.000000e+00 0.000000e+00 0.000000e+00 
0.000000e+00 0.000000e+00 0.000000e+00 
0.000000e+00 0.000000e+00 0.000000e+00 
0.000000e+00 0.000000e+00 0.000000e+00 
0.000000e+00 0.000000e+00 0.000000e+00 
0.000000e+00 0.000000e+00 0.000000e+00 
0.000000e+00 0.000000e+00 0.000000e+00 
0.000000e+00 0.000000e+00 0.000000e+00 
0.000000e+00 0.000000e+00 0.000000e+00 
0.000000e+00 0.000000e+00 0.000000e+00 
0.000000e+00 0.000000e+00 0.000000e+00 
0.000000e+00 0.000000e+00 0.000000e+00 
0.000000e+00 0.000000e+00 0.000000e+00 
0.000000e+00 0.000000e+00 0.000000e+00 
0.000000e+00 0.000000e+00 0.000000e+00 
0.000000e+00 0.000000e+00 0.000000e+00 
0.000000e+00 0.000000e+00 0.000000e+00 
0.000000e+00 0.000000e+00 0.000000e+00 
0.000000e+00 0.000000e+00 0.000000e+00 
0.000000e+00 0.000000e+00 0.000000e+00 
0.000000e+00 0.000000e+00 0.000000e+00 
0.000000e+00 0.000000e+00 0.000000e+00 
0.000000e+00 0.000000e+00 0.000000e+00 
0.000000e+00 0.000000e+00 0.000000e+00 
0.000000e+00 0.000000e+00 0.000000e+00 
0.000000e+00 0.000000e+00 0.000000e+00 
0.000000e+00 0.000000e+00 0.000000e+00 
0.000000e+00 0.000000e+00 0.000000e+00 
0.000000e+00 0.000000e+00 0.000000e+00 
0.000000e+00 0.000000e+00 0.000000e+00 
0.000000e+00 0.000000e+00 0.000000e+00 
0.000000e+00 0.000000e+00 0.000000e+00 
0.000000e+00 0.000000e+00 0.000000e+00 
0.000000e+00 0.000000e+00 0.000000e+00 
0.000000e+00 0.000000e+00 0.000000e+00 
0.000000e+00 0.000000e+00 0.000000e+00 
0.000000e+00 0.000000e+00 0.000000e+00 
0.000000e+00 0.000000e+00 0.000000e+00 
0.000000e+00 0.000000e+00 0.000000e+00 
0.000000e+00 0.000000e+00 0.000000e+00 
0.000000e+00 0.000000e+00 0.000000e+00 
0.000000e+00 0.000000e+00 0.000000e+00 
0.000000e+00 0.000000e+00 0.000000e+00 
0.000000e+00 0.000000e+00 0.000000e+00 
0.000000e+00 0.000000e+00 0.000000e+00 
0.000000e+00 0.000000e+00 0.000000e+00 
0.000000e+00 0.000000e+00 0.000000e+00 
0.000000e+00 0.000000e+00 0.000000e+00 
0.000000e+00 0.000000e+00 0.000000e+00 
0.000000e+00 0.000000e+00 0.000000e+00 
0.000000e+00 0.000000e+00 0.000000e+00 
0.000000e+00 0.000000e+00 0.000000e+00 
0.000000e+00 0.000000e+00 0.000000e+00 
0.000000e+00 0.000000e+00 0.000000e+00 
0.000000e+00 0.000000e+00 0.000000e+00 
0.000000e+00 0.000000e+00 0.000000e+00 
0.000000e+00 0.000000e+00 0.000000e+00 
0.000000e+00 0.000000e+00 0.000000e+00 
0.000000e+00 0.000000e+00 0.000000e+00 
0.000000e+00 0.000000e+00 0.000000e+00 
0.000000e+00 0.000000e+00 0.000000e+00 
0.000000e+00 0.000000e+00 0.000000e+00 
0.000000e+00 0.000000e+00 0.000000e+00 
0.000000e+00 0.000000e+00 0.000000e+00 
0.000000e+00 0.000000e+00 0.000000e+00 
0.000000e+00 0.000000e+00 0.000000e+00 
0.000000e+00 0.000000e+00 0.000000e+00 
0.000000e+00 0.000000e+00 0.000000e+00 
0.000000e+00 0.000000e+00 0.000000e+00 
0.000000e+00 0.000000e+00 0.000000e+00 
0.000000e+00 0.000000e+00 0.000000e+00 
0.000000e+00 0.000000e+00 0.000000e+00 