# vtk DataFile Version 3.1
*description-name of input file* step:3201 
ASCII
DATASET UNSTRUCTURED_GRID
POINTS 1605 FLOAT
-7.226041e-09 -5.515633e-09 -1.974540e-10
-7.828504e-09 -4.583136e-09 -5.662296e-10
-6.279238e-09 -4.815380e-09 -7.941279e-10
-7.485693e-09 -4.191984e-09 2.217179e-09
-5.625100e-09 -6.039783e-09 -1.366752e-10
1.215810e-08 6.900808e-09 -1.065140e-08
1.390315e-08 6.973705e-09 -1.124888e-08
1.279999e-08 5.355717e-09 -1.191405e-08
-6.565775e-09 -6.236781e-09 8.499910e-10
-6.222577e-09 -2.781892e-09 6.417480e-10
-4.477281e-09 -4.599801e-09 -8.955412e-10
-6.184482e-09 -2.934859e-09 -2.331376e-10
-5.525247e-09 -5.231556e-09 2.197973e-09
-5.941608e-09 -3.506443e-09 1.616844e-09
-5.367460e-09 -3.366882e-09 -1.653218e-09
-7.370274e-09 -4.127655e-09 3.138081e-09
-3.717929e-09 -5.594646e-09 2.717567e-10
-6.412228e-09 -1.026180e-09 5.256276e-11
-5.416408e-09 -1.527966e-09 -7.809505e-10
-3.918528e-09 -4.021551e-09 -3.172298e-09
-5.188601e-09 -2.318170e-09 -3.220252e-09
-3.677965e-09 -1.822570e-09 -4.143479e-09
-6.501034e-09 -2.580406e-09 2.241796e-09
-5.518053e-09 5.782839e-11 -2.328885e-09
-6.229033e-09 6.013361e-10 -1.075495e-09
-3.482159e-09 -4.686044e-09 1.961797e-09
-7.252632e-09 -1.121488e-09 1.153824e-09
-5.852870e-09 -3.440232e-09 3.916055e-09
-4.113140e-09 -2.141293e-09 -3.400482e-10
-8.224470e-09 -2.019057e-09 2.951877e-09
-2.590605e-09 -4.307612e-09 -2.262318e-09
-2.806637e-09 -3.362510e-09 -4.078192e-09
-1.927231e-09 -4.093198e-09 -3.512737e-09
-3.748087e-09 -3.563869e-09 -5.664240e-10
-6.132748e-09 -2.296074e-09 4.113686e-09
-4.190105e-09 -7.776122e-10 -2.205777e-09
-5.893685e-09 -5.966716e-10 2.220751e-09
-4.766886e-09 -2.245053e-10 6.410765e-10
-2.791093e-09 -2.182512e-09 -1.913246e-09
-4.038885e-09 -3.958571e-09 3.917038e-09
-4.833797e-09 1.219735e-10 -4.399046e-10
-3.993760e-09 6.483932e-10 -5.000335e-09
-4.045519e-09 4.863356e-10 -3.078678e-09
-5.045110e-09 1.015706e-09 -3.596838e-09
-4.163153e-09 -2.410261e-09 2.412256e-09
-1.510095e-09 -3.207160e-09 -6.231117e-10
-4.716858e-09 2.325044e-09 -4.529144e-09
-2.778814e-09 -1.486480e-09 -3.309416e-09
-2.897974e-09 2.351465e-10 -2.474493e-09
-1.644462e-09 -1.907157e-09 -3.223520e-09
-3.189957e-09 4.830432e-10 -7.914567e-10
-3.264985e-09 -2.014300e-09 3.798299e-10
-3.377417e-09 6.785731e-11 -4.916606e-09
-1.776567e-09 -2.326893e-09 -1.665217e-09
-3.707331e-09 -7.430195e-10 8.195614e-09
-2.078519e-09 -2.026669e-09 7.237681e-09
-1.804628e-09 4.926845e-10 7.344828e-09
-1.306389e-09 9.440222e-10 -4.143877e-09
-6.000786e-09 -3.120530e-09 6.175631e-09
-4.422024e-09 2.277299e-09 -2.719886e-09
-3.702019e-09 -2.598909e-09 4.013835e-09
-4.271796e-09 -4.378409e-10 2.773261e-09
-3.921694e-09 -1.412583e-09 1.519089e-09
-5.714747e-09 1.942761e-09 -5.049992e-10
-5.043766e-09 8.914295e-10 1.222621e-09
-6.552729e-09 1.451030e-09 2.212200e-09
-4.953446e-09 -4.254194e-09 5.988634e-09
-4.705119e-09 -3.877399e-09 7.404033e-09
-6.191814e-09 -1.661055e-09 6.660545e-09
-1.856988e-09 1.879494e-09 2.341088e-09
-9.701278e-11 2.006467e-09 4.042384e-09
-1.162723e-09 2.157017e-09 7.918860e-10
-4.579958e-09 4.109207e-10 -8.708774e-10
-3.130494e-09 -4.333536e-09 5.450074e-09
9.786531e-10 3.657067e-10 3.698723e-09
8.715382e-10 1.058538e-09 4.170649e-09
-2.193234e-10 8.056854e-10 5.610735e-09
-5.988276e-09 3.028564e-09 1.367914e-09
-4.849697e-09 -1.595112e-09 5.478700e-09
-1.106540e-09 -4.999134e-11 -1.394999e-09
-4.742678e-09 -2.091252e-09 4.652392e-09
-3.303042e-09 4.011455e-10 8.763452e-10
-2.135582e-09 -4.909722e-10 5.307304e-11
-5.804533e-09 2.115057e-09 4.056868e-09
-2.550351e-09 -5.287798e-09 3.718659e-09
-3.129926e-09 2.369687e-09 -3.947625e-09
-2.261791e-09 -3.626069e-09 2.609825e-09
-5.678720e-09 -6.519083e-10 5.301213e-09
-2.736964e-09 2.201449e-09 -2.281799e-09
-4.234002e-09 -1.960949e-10 4.780959e-09
-2.935829e-09 -2.818668e-09 5.173030e-09
-5.758197e-09 -5.841102e-10 3.964096e-09
-3.053585e-09 -1.068636e-09 4.306717e-09
-4.636687e-10 -1.404406e-09 3.043222e-10
-4.750535e-09 3.392687e-09 2.412619e-09
-3.721610e-09 2.713922e-09 -8.296628e-10
-3.200024e-10 -1.517839e-09 -3.231780e-09
7.311410e-11 -2.783903e-09 -2.590212e-09
-3.804764e-09 -2.411489e-09 7.985338e-09
-5.159643e-09 -1.601565e-09 7.729583e-09
-5.348663e-09 1.032126e-10 7.640050e-09
7.555834e-10 2.279155e-09 3.161722e-09
-3.885974e-09 1.480404e-09 1.010059e-09
-4.249111e-09 2.914438e-09 2.854185e-10
-6.514486e-09 1.023965e-09 4.738540e-09
-4.338458e-09 1.506121e-10 3.392363e-09
-3.690097e-09 -2.767572e-09 6.477479e-09
-5.802914e-11 5.591539e-12 -3.102467e-09
-1.338419e-09 -2.863458e-09 3.739140e-09
-4.979680e-09 1.202025e-09 6.657240e-09
-3.544091e-09 5.875190e-10 3.211112e-09
-4.340157e-09 2.234871e-09 5.508642e-09
-4.387991e-09 1.958538e-09 3.009536e-09
-3.489073e-10 -4.085743e-09 2.707656e-09
8.115012e-10 -3.503342e-09 4.424965e-09
-4.223463e-09 2.440740e-09 1.921021e-09
5.528904e-10 -1.663880e-09 -5.066913e-10
-4.499775e-09 2.851037e-09 4.207538e-09
1.401965e-09 -1.252629e-09 -3.859142e-09
-8.424572e-10 -4.161628e-09 6.293231e-09
-5.470282e-10 -5.772788e-10 1.312233e-09
-2.309471e-09 -3.297286e-09 6.399415e-09
-1.952427e-09 -2.135447e-09 5.508564e-09
-1.527249e-09 -4.869214e-10 2.738208e-09
-1.204833e-09 -1.793863e-09 4.464779e-09
-2.806541e-09 1.196938e-09 3.564624e-09
1.767803e-09 -1.099633e-09 -1.722023e-09
7.293639e-10 6.688921e-10 -1.255079e-09
1.273135e-09 -5.528404e-10 5.889087e-09
-3.144767e-09 1.015545e-09 5.903844e-09
8.034134e-10 5.054717e-10 -3.320567e-09
9.159504e-10 -4.676372e-09 3.226438e-09
-9.271459e-10 -7.997497e-10 3.943182e-09
1.087951e-09 -1.061185e-09 -1.951544e-10
5.131290e-10 -3.446766e-09 5.539269e-09
-3.033118e-09 7.883036e-10 7.299158e-09
-2.693134e-09 2.249053e-09 5.419097e-09
-1.197385e-09 -1.926693e-09 6.648652e-09
1.720720e-09 -4.531118e-09 3.807785e-09
2.004753e-09 -3.654975e-09 2.718604e-09
-3.784971e-10 -1.537695e-09 2.889390e-09
-2.518513e-10 -2.756948e-09 6.919324e-09
1.346713e-09 -1.731301e-09 1.827415e-09
1.818560e-09 -3.909602e-10 -2.451444e-09
-1.077994e-09 1.399369e-09 3.602410e-09
-9.157080e-10 -1.156678e-09 8.099213e-09
1.632208e-09 4.933967e-10 3.412263e-11
2.475280e-09 -3.594225e-09 4.866312e-09
3.323365e-09 -3.833675e-09 3.839387e-09
1.526902e-09 1.022869e-09 -1.318382e-09
3.916286e-10 -2.010107e-09 6.396894e-09
-1.689628e-09 8.712073e-10 5.162863e-09
3.042874e-09 -6.211395e-10 1.091329e-09
2.555445e-09 3.644257e-10 -4.100702e-09
1.862135e-09 -2.807782e-09 5.115764e-09
3.702372e-09 -2.495365e-09 2.528659e-09
3.347318e-09 2.858175e-10 -2.316071e-09
2.650424e-09 2.443841e-09 -2.693100e-09
2.851415e-09 2.245640e-09 -4.267134e-09
3.565985e-09 1.077638e-09 -3.741090e-09
4.605804e-09 1.751751e-09 -5.348874e-09
1.274214e-09 -1.384336e-09 4.350513e-09
6.732873e-10 -7.185688e-10 7.416737e-09
2.640337e-09 -8.027185e-10 2.094036e-09
1.279989e-09 1.202796e-09 5.300635e-10
1.958903e-09 1.428769e-09 -3.902941e-10
4.574945e-09 1.621010e-09 -3.553465e-09
3.820058e-10 1.497905e-09 7.325911e-09
1.378528e-09 1.032294e-09 2.165273e-09
3.011216e-09 -2.208577e-09 3.492675e-09
2.109093e-09 4.900232e-11 3.378296e-09
3.390919e-09 -8.580762e-10 2.139617e-09
4.229045e-09 2.797228e-09 -3.575701e-09
2.960701e-09 7.968172e-10 -7.328244e-10
3.219943e-09 1.293215e-09 -1.896788e-09
4.743327e-09 2.788128e-09 -4.946001e-09
3.365579e-09 1.267507e-09 8.776750e-10
5.328212e-09 2.042877e-09 -5.873631e-09
5.224940e-09 1.628429e-09 -4.787338e-09
3.386002e-09 -2.116682e-10 1.183426e-10
3.408383e-09 1.253707e-09 2.707261e-09
6.458104e-09 1.412091e-09 -5.696148e-09
5.764794e-09 2.852140e-09 -3.921221e-09
7.346282e-09 3.041530e-09 -6.687567e-09
7.060499e-09 1.930231e-09 -4.786532e-09
7.150331e-09 2.378649e-09 -6.349807e-09
5.963601e-09 3.429688e-09 -5.074654e-09
7.071232e-09 3.216223e-09 -5.410330e-09
8.738832e-09 2.775729e-09 -5.595492e-09
8.374998e-09 3.013659e-09 -7.147436e-09
8.849782e-09 4.040178e-09 -6.491001e-09
9.832944e-09 3.082086e-09 -6.972405e-09
1.029457e-08 4.526048e-09 -8.015904e-09
1.033839e-08 5.159414e-09 -7.781157e-09
9.363628e-09 3.797076e-09 -5.693825e-09
1.117309e-08 4.498142e-09 -6.854367e-09
1.022837e-08 4.758957e-09 -6.076074e-09
1.071354e-08 4.941940e-09 -8.738589e-09
1.134758e-08 6.566001e-09 -7.524576e-09
1.135107e-08 5.192171e-09 -6.481256e-09
1.280162e-08 5.135047e-09 -8.144920e-09
1.104993e-08 6.772740e-09 -9.996009e-09
1.154293e-08 5.936807e-09 -1.045646e-08
1.114590e-08 6.036759e-09 -8.935720e-09
1.192659e-08 4.993030e-09 -8.824800e-09
1.162245e-08 5.856468e-09 -7.090768e-09
1.298526e-08 5.734906e-09 -8.050135e-09
1.335318e-08 4.907413e-09 -8.657622e-09
1.401592e-08 4.749265e-09 -1.034164e-08
1.163755e-08 6.721550e-09 -8.698398e-09
1.434717e-08 6.642761e-09 -1.051124e-08
1.409993e-08 6.600059e-09 -9.079692e-09
1.389033e-08 7.774524e-09 -9.383042e-09
1.742903e-09 1.225819e-09 -8.543379e-10
-4.254942e-09 -3.144444e-09 7.694685e-09
7.248307e-09 2.710089e-09 -6.518687e-09
7.208757e-09 3.128876e-09 -6.048948e-09
1.247905e-08 6.128262e-09 -1.128273e-08
2.322784e-09 1.235151e-09 7.038693e-10
-4.011877e-09 3.025084e-10 -6.156806e-10
7.905032e-09 2.995976e-09 -5.502911e-09
5.276466e-10 3.896680e-10 7.371324e-09
-1.885882e-10 3.094504e-10 -1.325039e-09
-2.844534e-09 -9.736830e-10 -2.193870e-09
7.860640e-09 3.027594e-09 -6.917501e-09
-4.733567e-09 1.646503e-09 -3.158362e-09
-5.798248e-09 1.171230e-09 1.717411e-09
-1.032279e-10 1.228953e-09 3.886530e-09
1.273675e-09 -9.685881e-10 5.119800e-09
1.031648e-08 4.842731e-09 -7.898531e-09
-4.642994e-09 -3.694216e-09 -2.412758e-09
-4.236287e-09 2.677589e-09 1.103220e-09
-3.318924e-09 -2.708789e-09 4.593433e-09
-6.270502e-09 2.239797e-09 1.790057e-09
1.126208e-08 4.845156e-09 -6.667811e-09
8.134120e-11 1.151795e-09 6.468323e-09
3.356674e-10 3.372418e-10 -2.178773e-09
3.872627e-10 1.532502e-09 4.106517e-09
-4.796187e-09 -1.843182e-09 5.065546e-09
-1.645423e-09 -2.499453e-09 4.623852e-09
-4.499823e-09 3.153562e-09 1.349019e-09
-2.225549e-09 -2.634833e-09 -3.650856e-09
1.335157e-08 6.164711e-09 -1.158147e-08
[...]
POINT_DATA 1605
VECTORS vector_force float
-5.455702e+02 1.858748e+02 1.509935e+02 
8.131265e+02 4.427864e+02 -2.799915e+02 
2.788603e+01 5.017472e+01 -7.986466e+02 
1.370971e+03 -3.972611e+02 -1.389475e+02 
1.095431e+02 5.198984e+02 1.858594e+01 
-1.088807e+03 -5.946709e+02 3.492224e+02 
-3.949301e+02 -2.717637e+02 -1.121179e+03 
8.740198e+02 1.597799e+02 8.194432e+01 
-2.785685e+02 -2.172482e+02 -2.431257e+02 
-2.200723e+02 7.467352e+01 4.249546e+01 
-3.812483e+02 3.972605e+02 -3.384542e+02 
-1.933998e+02 3.192776e+02 3.321857e+02 
3.452239e+02 2.638009e+02 4.651751e+01 
-2.078263e+02 3.241089e+02 -1.591586e+02 
-2.873199e+02 -1.362493e+02 -3.143616e+02 
3.565401e+02 -1.514461e+02 -8.399550e+02 
-7.193123e+02 -3.627966e+02 -7.410813e+02 
2.008363e+02 4.194891e+02 -1.014282e+02 
3.981768e+02 -7.455321e+02 -1.282577e+02 
-3.459105e+02 -3.186450e+02 -3.081659e+02 
4.405645e+02 1.366084e+02 -4.165212e+02 
8.068606e+02 8.708275e+02 -8.672371e+02 
-4.857641e+02 -6.012677e+01 -1.469812e+02 
4.501689e+02 8.324957e+02 2.589964e+02 
2.185332e+02 -8.808193e+02 4.231073e+02 
-2.271338e+02 4.590956e+01 -2.462184e+02 
-7.842597e+02 1.449879e+03 -6.220093e+02 
1.583136e+02 2.792540e+02 -1.005772e+03 
-2.616535e+02 -1.480846e+02 -1.382860e+02 
-1.416114e+02 8.512070e+00 3.880062e+02 
-1.202524e+03 -2.337771e+02 -4.767946e+01 
2.751416e+02 1.344385e+02 -4.092308e+02 
3.259727e+02 -2.330449e+02 2.851597e+02 
-6.372748e+01 -1.506152e+02 -6.515851e+01 
2.033764e+02 -2.879548e+02 -8.769338e+01 
-3.931581e+02 2.171298e+01 3.636455e+02 
4.549037e+02 1.131566e+02 7.124288e+02 
1.267416e+02 3.547285e+02 6.710386e+02 
-3.344099e+02 -8.945368e+02 -4.764198e+02 
7.523946e+02 -1.573795e+02 -4.471881e+02 
-1.264143e+02 -5.740871e+02 1.485479e+02 
-3.355771e+02 1.445418e+02 -3.638590e+02 
3.767272e+02 4.372843e+02 -3.441135e+02 
2.812374e+02 6.077670e+02 5.577143e+02 
-4.888555e+02 3.476764e+02 -5.819745e+02 
-6.668982e+02 -1.639775e+02 4.624914e+02 
2.165782e+02 -6.727986e+02 5.167417e+01 
1.641433e+02 -1.001714e+03 -2.005799e+02 
-8.651237e+01 -4.603073e+01 -3.663280e+02 
2.019069e+02 -5.773624e+02 -4.213610e+02 
-3.411040e+02 4.513971e+02 -2.667249e+02 
-9.226468e+01 2.024882e+02 2.176112e+02 
-3.553132e+02 1.182093e+02 2.973741e+02 
-6.328693e+02 -5.382949e+02 -1.026763e+01 
-3.987023e+02 -3.616124e+02 1.369691e+02 
7.407319e+02 2.571207e+02 5.212136e+01 
-3.152990e+02 -6.883532e+02 -4.431848e+02 
-1.155040e+03 9.605037e+02 -2.626791e+02 
4.486425e+01 -1.012561e+03 -5.562358e+02 
8.809907e+02 1.349342e+03 4.721151e+01 
4.732875e+02 5.012147e+02 -1.142089e+02 
1.967843e+02 -1.325802e+03 -2.368122e+02 
-2.620448e+02 -1.685306e+02 -1.375377e+02 
2.233136e+02 2.095166e+01 -6.554688e+00 
5.197931e+01 -2.749522e+02 2.701827e+02 
-6.606721e+02 -1.148304e+02 9.935913e+02 
-6.724972e+02 -1.023058e+02 3.103193e+02 
-2.839623e+01 -3.348492e+02 7.126847e+01 
-6.601749e+01 5.417301e+01 -6.225022e+02 
7.797702e+01 -2.302617e+02 -7.918105e+02 
1.048157e+02 -2.839899e+02 -8.214798e+02 
7.293913e+02 4.554203e+02 9.950336e+01 
2.633811e+02 -1.683815e+01 8.787422e+02 
4.813814e+02 -7.815348e+02 1.995994e+02 
-5.324289e+02 -3.486834e+02 2.167535e+02 
-7.047049e+02 -1.479725e+02 -4.641210e+02 
-1.583069e+02 8.294144e+02 -2.011285e+02 
-3.897521e+02 -1.390174e+02 -4.721905e+02 
2.057826e+02 1.286824e+02 6.342746e+01 
-9.952418e+02 -4.386512e+02 1.015648e+02 
1.823018e+02 1.905063e+02 1.164808e+02 
3.988223e+02 2.412976e+02 2.693826e+02 
-5.049280e+02 2.789787e+02 3.178354e+02 
-2.493487e+02 -2.698081e+02 6.432255e+02 
9.874452e+02 -2.235106e+02 -3.489886e+02 
5.104184e+02 3.718140e+02 -8.542644e+02 
4.562736e+02 1.287315e+01 3.652489e+02 
-4.022560e+02 9.386136e+01 -4.445181e+02 
7.931473e+02 5.613852e+02 -9.625883e+02 
-7.278610e+02 2.145633e+02 2.277093e+02 
8.077554e+01 -2.647579e+02 6.516535e+02 
9.327018e+01 1.039953e+02 -6.182689e+02 
1.204741e+02 1.851672e+02 2.483108e+02 
-3.697507e+02 -3.534566e+02 -1.081953e+02 
2.124838e+02 3.473188e+02 6.415582e+02 
7.039940e+02 3.338461e+02 1.662287e+03 
1.088655e+03 -9.211009e+02 1.828279e+02 
1.254773e+03 -5.988808e+02 3.640865e+02 
-4.279175e+02 3.700510e+02 1.049927e+02 
-7.245248e+02 2.988220e+02 -4.922517e+02 
-1.053086e+03 -1.738907e+02 -2.226310e+02 
-1.737323e+02 6.101776e+02 2.631058e+02 
-3.417265e+02 -9.034961e+02 -2.992959e+02 
-3.445512e+01 1.645330e+02 8.458575e+02 
-4.212935e+02 2.858379e+01 1.779622e+02 
-3.815733e+02 -5.001129e+02 7.163679e+02 
2.741562e+02 1.220498e+01 -3.200607e+01 
2.892372e+02 -9.953045e+02 -5.020774e+02 
3.988230e+02 -4.836065e+02 -2.973367e+02 
-6.866905e+02 -5.898745e+02 -5.104878e+02 
2.759889e+01 -3.250257e+02 4.386036e+02 
1.156483e+03 2.218625e+02 1.116890e+02 
-1.216177e+02 -3.383282e+02 5.572093e+02 
1.754430e+02 -6.628669e+02 1.345421e+03 
-4.578112e+01 -5.045678e+02 4.606280e+02 
-6.946109e+02 -4.261079e+02 4.633807e+02 
-6.926450e+02 -5.526269e+02 2.639072e+02 
-8.711791e+01 -2.500131e+02 2.165613e+02 
-1.163880e+02 3.357693e+02 2.868052e+02 
-4.663607e+02 -9.641547e+00 1.746885e+02 
-9.713970e+01 -7.372774e+01 2.147402e+02 
-7.413564e+02 -5.978195e+02 6.211636e+02 
2.691455e+02 -7.409538e+01 -7.754452e+01 
-3.548572e+02 -3.922652e+02 1.874902e+02 
-1.028213e+00 -1.036963e+02 5.309544e+01 
7.415185e+02 -2.866407e+02 7.857032e+02 
-4.242288e+02 2.429469e+02 -6.018647e+02 
-2.540953e+02 -2.115043e+02 -4.512551e+02 
-4.333200e+02 2.027195e+02 -3.561596e+02 
2.228280e+02 -1.466302e+02 1.811343e+02 
-6.108629e+02 -1.962458e+02 1.074989e+02 
5.679645e+01 -2.919077e+02 5.223593e+02 
1.283004e+02 9.092028e+01 -2.022727e+02 
5.490550e+02 -1.327736e+02 -3.417209e+02 
-1.417468e+02 2.356328e+01 3.150474e+02 
-9.859684e+02 -7.376982e+02 -4.915774e+02 
-5.338183e+02 -1.387106e+03 3.781343e+01 
2.949270e+02 2.061015e+02 -3.613067e+02 
-3.834865e+02 -3.695620e+02 -1.955282e+02 
3.460487e+02 -4.117144e+02 -4.561774e+02 
1.397885e+02 -7.211852e+02 -4.087341e+02 
-6.016082e+02 -9.189555e+00 -1.737618e+02 
4.810728e+02 4.076545e+02 -4.242909e+02 
-4.398251e+02 -5.440730e+02 -2.821336e+02 
2.119172e+02 -1.548732e+02 -4.913726e+02 
-5.163133e+02 6.350167e+02 -3.297511e+02 
1.208823e+02 1.469605e+02 -8.019228e+02 
7.887863e+01 1.884943e+02 -4.949249e+02 
-6.053909e+02 4.473793e+02 3.439701e+02 
2.610095e+02 1.903114e+02 -4.592158e+02 
-4.458084e+02 8.192892e+02 2.045633e+02 
3.272881e+02 -5.871008e+02 5.469873e+01 
-1.092110e+02 -1.180260e+02 2.883123e+02 
-2.829891e+01 -2.891651e+02 -6.123821e+02 
2.484082e+02 3.051248e+02 -5.696193e+02 
1.223380e+00 -2.147894e+02 4.780343e+02 
-1.479726e+02 -1.110865e+03 -5.878890e+02 
4.979317e+02 2.242158e+02 -1.013121e+03 
-3.750351e+02 -1.515652e+02 -1.125007e+03 
-3.339045e+01 -9.402264e+01 -6.426321e+02 
1.305244e+03 3.457632e+02 1.055601e+03 
-1.019110e+02 -3.143468e+02 -2.411392e+01 
-1.054499e+03 1.930253e+02 -3.387542e+02 
-3.528727e+02 2.510491e+02 -4.416417e+02 
-4.436141e+02 2.370720e+02 -2.987776e+02 
-9.918508e+01 8.292013e+02 -7.757750e+02 
-1.269369e+00 1.062315e+02 -8.129710e+02 
-1.589873e+03 -1.060811e+03 -4.088371e+02 
-7.438353e+02 5.927883e+00 -1.699173e+02 
3.860402e+01 -2.941363e+02 1.796698e+02 
-6.946928e+02 -7.380034e+02 2.485722e+02 
-8.422542e+02 1.262789e+03 -1.019683e+03 
1.182204e+02 -2.297234e+02 -7.013016e+02 
1.547500e+02 -7.254282e+01 -7.948339e+00 
-5.076140e+02 -5.681433e+01 -3.584991e+02 
2.781780e+02 -1.525363e+02 -1.416539e+02 
3.836757e+02 4.400016e+02 2.759298e+02 
3.226291e+02 7.491770e+02 -9.976299e+01 
8.995214e+02 2.996625e+01 -2.459148e+02 
5.380042e+02 -4.314840e+02 2.105366e+01 
-4.106226e+02 1.222171e+03 2.708951e+02 
-4.782204e+02 -2.953301e+01 4.222013e+02 
-4.900292e+02 -1.444552e+02 7.210897e+02 
-1.021526e+03 3.624808e+02 1.370041e+03 
2.491082e+02 -5.932754e+02 4.360214e+02 
-2.845205e+02 5.320073e+02 3.609011e+02 
2.913970e+02 -1.527401e+02 6.436898e+02 
-6.193147e+02 -8.697634e+02 1.579982e+03 
-1.134185e+02 -5.828874e+02 4.669009e+02 
-1.216415e+03 -2.981598e+02 1.740467e+03 
-1.138692e+03 -4.009575e+01 2.059638e+02 
-1.162300e+02 1.081804e+02 5.330623e+02 
-4.292362e+02 1.900599e+02 -1.188970e+02 
4.256732e+02 -9.398265e+01 2.633401e+02 
-9.370119e+02 6.856911e+02 7.747357e+01 
-5.022565e+02 -7.736021e+02 -3.757607e+02 
2.160923e+02 5.015381e+02 -5.732021e+02 
-1.278180e+03 -2.509425e+02 -3.697141e+02 
-6.189436e+02 -7.300626e+02 -6.251676e+02 
-6.337149e+02 -1.268076e+02 5.850564e+01 
2.254386e+02 -7.150104e+02 -2.522416e+02 
-4.126803e+02 -1.409492e+03 -3.232974e+02 
-5.620491e+02 -8.834330e+02 -6.411329e+02 
-6.486082e+02 -2.908594e+02 -1.318407e+02 
1.810045e+02 -7.649152e+02 -1.009288e+02 
-2.805592e+02 5.606861e+02 3.457952e+02 
-6.592590e+02 1.720947e+02 -2.977944e+02 
-5.295470e+02 7.326491e+02 -5.102356e+01 
3.906585e+02 8.417688e+02 2.979174e+02 
-1.020418e+03 -4.726349e+02 -6.231794e+02 
-6.781208e+02 5.238539e+02 -1.981951e+02 
-5.377908e+02 -2.877607e+02 -1.941974e+02 
-9.802143e+02 3.096840e+02 -1.203640e+01 
0.000000e+00 0.000000e+00 0.000000e+00 
0.000000e+00 0.000000e+00 0.000000e+00 
0.000000e+00 0.000000e+00 0.000000e+00 
0.000000e+00 0.000000e+00 0.000000e+00 
0.000000e+00 0.000000e+00 0.000000e+00 
0.000000e+00 0.000000e+00 0.000000e+00 
0.000000e+00 0.000000e+00 0.000000e+00 
0.000000e+00 0.000000e+00 0.000000e+00 
0.000000e+00 0.000000e+00 0.000000e+00 
0.000000e+00 0.000000e+00 0.000000e+00 
0.000000e+00 0.000000e+00 0.000000e+00 
0.000000e+00 0.000000e+00 0.000000e+00 
0.000000e+00 0.000000e+00 0.000000e+00 
0.000000e+00 0.000000e+00 0.000000e+00 
0.000000e+00 0.000000e+00 0.000000e+00 
0.000000e+00 0.000000e+00 0.000000e+00 
0.000000e+00 0.000000e+00 0.000000e+00 
0.000000e+00 0.000000e+00 0.000000e+00 
0.000000e+00 0.000000e+00 0.000000e+00 
0.000000e+00 0.000000e+00 0.000000e+00 
0.000000e+00 0.000000e+00 0.000000e+00 
0.000000e+00 0.000000e+00 0.000000e+00 
0.000000e+00 0.000000e+00 0.000000e+00 
0.000000e+00 0.000000e+00 0.000000e+00 
0.000000e+00 0.000000e+00 0.000000e+00 
0.000000e+00 0.000000e+00 0.000000e+00 
0.000000e+00 0.000000e+00 0.000000e+00 
0.000000e+00 0.000000e+00 0.000000e+00 
0.000000e+00 0.000000e+00 0.000000e+00 
0.000000e+00 0.000000e+00 0.000000e+00 
0.000000e+00 0.000000e+00 0.000000e+00 
0.000000e+00 0.000000e+00 0.000000e+00 
0.000000e+00 0.000000e+00 0.000000e+00 
0.000000e+00 0.000000e+00 0.000000e+00 
0.000000e+00 0.000000e+00 0.000000e+00 
0.000000e+00 0.000000e+00 0.000000e+00 
0.000000e+00 0.000000e+00 0.000000e+00 
0.000000e+00 0.000000e+00 0.000000e+00 
0.000000e+00 0.000000e+00 0.000000e+00 
0.000000e+00 0.000000e+00 0.000000e+00 
0.000000e+00 0.000000e+00 0.000000e+00 
0.000000e+00 0.000000e+00 0.000000e+00 
0.000000e+00 0.000000e+00 0.000000e+00 
0.000000e+00 0.000000e+00 0.000000e+00 
0.000000e+00 0.000000e+00 0.000000e+00 
0.000000e+00 0.000000e+00 0.000000e+00 
0.000000e+00 0.000000e+00 0.000000e+00 
0.000000e+00 0.000000e+00 0.000000e+00 
0.000000e+00 0.000000e+00 0.000000e+00 
0.000000e+00 0.000000e+00 0.000000e+00 
0.000000e+00 0.000000e+00 0.000000e+00 
0.000000e+00 0.000000e+00 0.000000e+00 
0.000000e+00 0.000000e+00 0.000000e+00 
0.000000e+00 0.000000e+00 0.000000e+00 
0.000000e+00 0.000000e+00 0.000000e+00 
0.000000e+00 0.000000e+00 0.000000e+00 
0.000000e+00 0.000000e+00 0.000000e+00 
0.000000e+00 0.000000e+00 0.000000e+00 
0.000000e+00 0.000000e+00 0.000000e+00 
0.000000e+00 0.000000e+00 0.000000e+00 
0.000000e+00 0.000000e+00 0.000000e+00 
0.000000e+00 0.000000e+00 0.000000e+00 
0.000000e+00 0.000000e+00 0.000000e+00 
0.000000e+00 0.000000e+00 0.000000e+00 
0.000000e+00 0.000000e+00 0.000000e+00 
0.000000e+00 0.000000e+00 0.000000e+00 
0.000000e+00 0.000000e+00 0.000000e+00 
0.000000e+00 0.000000e+00 0.000000e+00 
0.000000e+00 0.000000e+00 0.000000e+00 
0.000000e+00 0.000000e+00 0.000000e+00 
0.000000e+00 0.000000e+00 0.000000e+00 
0.000000e+00 0.000000e+00 0.000000e+00 
0.000000e+00 0.000000e+00 0.000000e+00 
0.000000e+00 0.000000e+00 0.000000e+00 
0.000000e+00 0.000000e+00 0.000000e+00 
0.000000e+00 0.000000e+00 0.000000e+00 
0.000000e+00 0.000000e+00 0.000000e+00 
0.000000e+00 0.000000e+00 0.000000e+00 
0.000000e+00 0.000000e+00 0.000000e+00 
0.000000e+00 0.000000e+00 0.000000e+00 
0.000000e+00 0.000000e+00 0.000000e+00 
0.000000e+00 0.000000e+00 0.000000e+00 
0.000000e+00 0.000000e+00 0.000000e+00 
0.000000e+00 0.000000e+00 0.000000e+00 
0.000000e+00 0.000000e+00 0.000000e+00 
0.000000e+00 0.000000e+00 0.000000e+00 
0.000000e+00 0.000000e+00 0.000000e+00 
0.000000e+00 0.000000e+00 0.000000e+00 
0.000000e+00 0.000000e+00 0.000000e+00 
0.000000e+00 0.000000e+00 0.000000e+00 
0.000000e+00 0.000000e+00 0.000000e+00 
0.000000e+00 0.000000e+00 0.000000e+00 
0.000000e+00 0.000000e+00 0.000000e+00 
0.000000e+00 0.000000e+00 0.000000e+00 
0.000000e+00 0.000000e+00 0.000000e+00 
0.000000e+00 0.000000e+00 0.000000e+00 
0.000000e+00 0.000000e+00 0.000000e+00 
0.000000e+00 0.000000e+00 0.000000e+00 
0.000000e+00 0.000000e+00 0.000000e+00 
0.000000e+00 0.000000e+00 0.000000e+00 
0.000000e+00 0.000000e+00 0.000000e+00 
0.000000e+00 0.000000e+00 0.000000e+00 
0.000000e+00 0.000000e+00 0.000000e+00 
0.000000e+00 0.000000e+00 0.000000e+00 
0.000000e+00 0.000000e+00 0.000000e+00 
0.000000e+00 0.000000e+00 0.000000e+00 
0.000000e+00 0.000000e+00 0.000000e+00 
0.000000e+00 0.000000e+00 0.000000e+00 
0.000000e+00 0.000000e+00 0.000000e+00 
0.000000e+00 0.000000e+00 0.000000e+00 
0.000000e+00 0.000000e+00 0.000000e+00 
0.000000e+00 0.000000e+00 0.000000e+00 
0.000000e+00 0.000000e+00 0.000000e+00 
0.000000e+00 0.000000e+00 0.000000e+00 
0.000000e+00 0.000000e+00 0.000000e+00 
0.000000e+00 0.000000e+00 0.000000e+00 
0.000000e+00 0.000000e+00 0.000000e+00 
0.000000e+00 0.000000e+00 0.000000e+00 
0.000000e+00 0.000000e+00 0.000000e+00 
0.000000e+00 0.000000e+00 0.000000e+00 
0.000000e+00 0.000000e+00 0.000000e+00 
0.000000e+00 0.000000e+00 0.000000e+00 
0.000000e+00 0.000000e+00 0.000000e+00 
0.000000e+00 0.000000e+00 0.000000e+00 
0.000000e+00 0.000000e+00 0.000000e+00 
0.000000e+00 0.000000e+00 0.000000e+00 
0.000000e+00 0.000000e+00 0.000000e+00 
0.000000e+00 0.000000e+00 0.000000e+00 
0.000000e+00 0.000000e+00 0.000000e+00 
0.000000e+00 0.000000e+00 0.000000e+00 
0.000000e+00 0.000000e+00 0.000000e+00 
0.000000e+00 0.000000e+00 0.000000e+00 
0.000000e+00 0.000000e+00 0.000000e+00 
0.000000e+00 0.000000e+00 0.000000e+00 
0.000000e+00 0.000000e+00 0.000000e+00 
0.000000e+00 0.000000e+00 0.000000e+00 
0.000000e+00 0.000000e+00 0.000000e+00 
0.000000e+00 0.000000e+00 0.000000e+00 
0.000000e+00 0.000000e+00 0.000000e+00 
0.000000e+00 0.000000e+00 0.000000e+00 
0.000000e+00 0.000000e+00 0.000000e+00 
0.000000e+00 0.000000e+00 0.000000e+00 
0.000000e+00 0.000000e+00 0.000000e+00 
0.000000e+00 0.000000e+00 0.000000e+00 
0.000000e+00 0.000000e+00 0.000000e+00 
0.000000e+00 0.000000e+00 0.000000e+00 
0.000000e+00 0.000000e+00 0.000000e+00 
0.000000e+00 0.000000e+00 0.000000e+00 
0.000000e+00 0.000000e+00 0.000000e+00 
0.000000e+00 0.000000e+00 0.000000e+00 
0.000000e+00 0.000000e+00 0.000000e+00 
0.000000e+00 0.000000e+00 0.000000e+00 
0.000000e+00 0.000000e+00 0.000000e+00 
0.000000e+00 0.000000e+00 0.000000e+00 
0.000000e+00 0.000000e+00 0.000000e+00 
0.000000e+00 0.000000e+00 0.000000e+00 
0.000000e+00 0.000000e+00 0.000000e+00 
0.000000e+00 0.000000e+00 0.000000e+00 
0.000000e+00 0.000000e+00 0.000000e+00 
0.000000e+00 0.000000e+00 0.000000e+00 
0.000000e+00 0.000000e+00 0.000000e+00 
0.000000e+00 0.000000e+00 0.000000e+00 
0.000000e+00 0.000000e+00 0.000000e+00 
0.000000e+00 0.000000e+00 0.000000e+00 
0.000000e+00 0.000000e+00 0.000000e+00 
0.000000e+00 0.000000e+00 0.000000e+00 
0.000000e+00 0.000000e+00 0.000000e+00 
0.000000e+00 0.000000e+00 0.000000e+00 
0.000000e+00 0.000000e+00 0.000000e+00 
0.000000e+00 0.000000e+00 0.000000e+00 
0.000000e+00 0.000000e+00 0.000000e+00 
0.000000e+00 0.000000e+00 0.000000e+00 
0.000000e+00 0.000000e+00 0.000000e+00 
0.000000e+00 0.000000e+00 0.000000e+00 
0.000000e+00 0.000000e+00 0.000000e+00 
0.000000e+00 0.000000e+00 0.000000e+00 
0.000000e+00 0.000000e+00 0.000000e+00 
0.000000e+00 0.000000e+00 0.000000e+00 
0.000000e+00 0.000000e+00 0.000000e+00 
0.000000e+00 0.000000e+00 0.000000e+00 
0.000000e+00 0.000000e+00 0.000000e+00 
0.000000e+00 0.000000e+00 0.000000e+00 
0.000000e+00 0.000000e+00 0.000000e+00 
0.000000e+00 0.000000e+00 0.000000e+00 
0.000000e+00 0.000000e+00 0.000000e+00 
0.000000e+00 0.000000e+00 0.000000e+00 
0.000000e+00 0.000000e+00 0.000000e+00 
0.000000e+00 0.000000e+00 0.000000e+00 
0.000000e+00 0.000000e+00 0.000000e+00 
0.000000e+00 0.000000e+00 0.000000e+00 
0.000000e+00 0.000000e+00 0.000000e+00 
0.000000e+00 0.000000e+00 0.000000e+00 
0.000000e+00 0.000000e+00 0.000000e+00 
0.000000e+00 0.000000e+00 0.000000e+00 
0.000000e+00 0.000000e+00 0.000000e+00 
0.000000e+00 0.000000e+00 0.000000e+00 
0.000000e+00 0.000000e+00 0.000000e+00 
0.000000e+00 0.000000e+00 0.000000e+00 
0.000000e+00 0.000000e+00 0.000000e+00 
0.000000e+00 0.000000e+00 0.000000e+00 
0.000000e+00 0.000000e+00 0.000000e+00 
0.000000e+00 0.000000e+00 0.000000e+00 
0.000000e+00 0.000000e+00 0.000000e+00 
0.000000e+00 0.000000e+00 0.000000e+00 
0.000000e+00 0.000000e+00 0.000000e+00 
0.000000e+00 0.000000e+00 0.000000e+00 
0.000000e+00 0.000000e+00 0.000000e+00 
0.000000e+00 0.000000e+00 0.000000e+00 
0.000000e+00 0.000000e+00 0.000000e+00 
0.000000e+00 0.000000e+00 0.000000e+00 
0.000000e+00 0.000000e+00 0.000000e+00 
0.000000e+00 0.000000e+00 0.000000e+00 
0.000000e+00 0.000000e+00 0.000000e+00 
0.000000e+00 0.000000e+00 0.000000e+00 
0.000000e+00 0.000000e+00 0.000000e+00 
0.000000e+00 0.000000e+00 0.000000e+00 
0.000000e+00 0.000000e+00 0.000000e+00 
0.000000e+00 0.000000e+00 0.000000e+00 
0.000000e+00 0.000000e+00 0.000000e+00 
0.000000e+00 0.000000e+00 0.000000e+00 
0.000000e+00 0.000000e+00 0.000000e+00 
0.000000e+00 0.000000e+00 0.000000e+00 
0.000000e+00 0.000000e+00 0.000000e+00 
0.000000e+00 0.000000e+00 0.000000e+00 
0.000000e+00 0.000000e+00 0.000000e+00 
0.000000e+00 0.000000e+00 0.000000e+00 
0.000000e+00 0.000000e+00 0.000000e+00 
0.000000e+00 0.000000e+00 0.000000e+00 
0.000000e+00 0.000000e+00 0.000000e+00 
0.000000e+00 0.000000e+00 0.000000e+00 
0.000000e+00 0.000000e+00 0.000000e+00 
0.000000e+00 0.000000e+00 0.000000e+00 
0.000000e+00 0.000000e+00 0.000000e+00 
0.000000e+00 0.000000e+00 0.000000e+00 
0.000000e+00 0.000000e+00 0.000000e+00 
0.000000e+00 0.000000e+00 0.000000e+00 
0.000000e+00 0.000000e+00 0.000000e+00 
0.000000e+00 0.000000e+00 0.000000e+00 
0.000000e+00 0.000000e+00 0.000000e+00 
0.000000e+00 0.000000e+00 0.000000e+00 
0.000000e+00 0.000000e+00 0.000000e+00 
0.000000e+00 0.000000e+00 0.000000e+00 
0.000000e+00 0.000000e+00 0.000000e+00 
0.000000e+00 0.000000e+00 0.000000e+00 
0.000000e+00 0.000000e+00 0.000000e+00 
0.000000e+00 0.000000e+00 0.000000e+00 
0.000000e+00 0.000000e+00 0.000000e+00 
0.000000e+00 0.000000e+00 0.000000e+00 
0.000000e+00 0.000000e+00 0.000000e+00 
0.000000e+00 0.000000e+00 0.000000e+00 
0.000000e+00 0.000000e+00 0.000000e+00 
0.000000e+00 0.000000e+00 0.000000e+00 
0.000000e+00 0.000000e+00 0.000000e+00 
0.000000e+00 0.000000e+00 0.000000e+00 
0.000000e+00 0.000000e+00 0.000000e+00 
0.000000e+00 0.000000e+00 0.000000e+00 
0.000000e+00 0.000000e+00 0.000000e+00 
0.000000e+00 0.000000e+00 0.000000e+00 
0.000000e+00 0.000000e+00 0.000000e+00 
0.000000e+00 0.000000e+00 0.000000e+00 
0.000000e+00 0.000000e+00 0.000000e+00 
0.000000e+00 0.000000e+00 0.000000e+00 
0.000000e+00 0.000000e+00 0.000000e+00 
0.000000e+00 0.000000e+00 0.000000e+00 
0.000000e+00 0.000000e+00 0.000000e+00 
0.000000e+00 0.000000e+00 0.000000e+00 
0.000000e+00 0.000000e+00 0.000000e+00 
0.000000e+00 0.000000e+00 0.000000e+00 
0.000000e+00 0.000000e+00 0.000000e+00 
0.000000e+00 0.000000e+00 0.000000e+00 
0.000000e+00 0.000000e+00 0.000000e+00 
0.000000e+00 0.000000e+00 0.000000e+00 
0.000000e+00 0.000000e+00 0.000000e+00 
0.000000e+00 0.000000e+00 0.000000e+00 
0.000000e+00 0.000000e+00 0.000000e+00 
0.000000e+00 0.000000e+00 0.000000e+00 
0.000000e+00 0.000000e+00 0.000000e+00 