# vtk DataFile Version 3.1
*description-name of input file* step:1401 
ASCII
DATASET UNSTRUCTURED_GRID
POINTS 1605 FLOAT
-7.199099e-09 -5.708037e-09 -2.180071e-10
-7.654025e-09 -4.511043e-09 -5.271579e-10
-6.335791e-09 -4.911294e-09 -7.310519e-10
-7.806032e-09 -3.990580e-09 1.878208e-09
-5.534570e-09 -5.938718e-09 -9.370622e-11
1.209056e-08 7.021536e-09 -1.068063e-08
1.362772e-08 7.266886e-09 -1.085971e-08
1.292385e-08 6.041546e-09 -1.208042e-08
-6.209558e-09 -6.165225e-09 8.945018e-10
-6.344519e-09 -2.897405e-09 8.565486e-10
-4.433478e-09 -4.589471e-09 -1.055590e-09
-6.238792e-09 -2.835374e-09 -4.507547e-10
-5.672230e-09 -5.469134e-09 2.357622e-09
-5.915866e-09 -3.740074e-09 1.862520e-09
-5.102777e-09 -3.596413e-09 -1.546733e-09
-7.541197e-09 -4.357871e-09 3.230287e-09
-3.469288e-09 -5.328603e-09 1.607690e-10
-6.421065e-09 -1.228879e-09 1.575637e-10
-5.346623e-09 -1.380354e-09 -1.004611e-09
-3.921881e-09 -4.072806e-09 -3.397230e-09
-5.017473e-09 -2.726724e-09 -3.087731e-09
-4.061222e-09 -2.006792e-09 -3.920137e-09
-6.376035e-09 -2.567666e-09 2.363752e-09
-5.917428e-09 2.181150e-10 -2.238262e-09
-6.136943e-09 3.253877e-10 -7.673238e-10
-3.666332e-09 -4.672343e-09 1.969311e-09
-7.112423e-09 -1.503117e-09 1.193235e-09
-5.849416e-09 -3.509411e-09 4.100246e-09
-4.103371e-09 -2.060530e-09 -3.287654e-10
-7.851886e-09 -2.291719e-09 3.295349e-09
-2.502403e-09 -4.446600e-09 -2.174535e-09
-2.760223e-09 -3.175117e-09 -3.836105e-09
-2.228542e-09 -4.097953e-09 -3.316630e-09
-3.555334e-09 -3.388574e-09 -6.397430e-10
-5.963239e-09 -2.554326e-09 4.308841e-09
-4.146449e-09 -8.929292e-10 -2.256359e-09
-6.165754e-09 -6.960373e-10 2.111352e-09
-4.692365e-09 -3.763989e-10 5.001926e-10
-2.984172e-09 -1.924692e-09 -2.017397e-09
-3.931632e-09 -4.067639e-09 3.750639e-09
-4.687508e-09 1.837363e-10 -6.552098e-10
-3.919403e-09 6.383818e-10 -5.331067e-09
-3.933906e-09 3.957953e-10 -2.921980e-09
-4.670684e-09 9.377085e-10 -4.019534e-09
-4.210837e-09 -2.531058e-09 2.218824e-09
-1.796705e-09 -3.257459e-09 -6.849790e-10
-4.487845e-09 2.281358e-09 -4.271869e-09
-2.963340e-09 -1.477832e-09 -3.309807e-09
-3.161052e-09 1.437779e-10 -2.780157e-09
-1.527083e-09 -1.737835e-09 -3.385355e-09
-3.334102e-09 3.577596e-10 -7.222199e-10
-3.045322e-09 -1.993716e-09 1.430077e-10
-3.338506e-09 1.379593e-11 -4.787362e-09
-1.819928e-09 -2.351865e-09 -1.840297e-09
-3.850890e-09 -4.382942e-10 8.186157e-09
-2.277120e-09 -1.521325e-09 7.523151e-09
-1.721202e-09 2.725256e-10 7.387212e-09
-1.497524e-09 3.648671e-10 -4.140326e-09
-5.758664e-09 -3.281162e-09 5.970436e-09
-4.242999e-09 2.266646e-09 -2.482002e-09
-3.608069e-09 -2.856033e-09 3.709616e-09
-4.521765e-09 -2.963454e-10 2.537337e-09
-3.846937e-09 -1.471533e-09 1.298030e-09
-5.455911e-09 2.273644e-09 -1.883832e-10
-4.697175e-09 6.876747e-10 1.198604e-09
-6.589614e-09 1.872497e-09 1.846693e-09
-4.723148e-09 -4.584060e-09 5.592674e-09
-4.683277e-09 -3.873668e-09 6.837188e-09
-6.127428e-09 -1.671842e-09 6.710388e-09
-1.967312e-09 1.842769e-09 2.017816e-09
-2.599441e-11 2.390540e-09 3.688257e-09
-9.420743e-10 1.797611e-09 7.152332e-10
-4.558856e-09 7.404637e-10 -1.080516e-09
-3.128875e-09 -4.458743e-09 5.433575e-09
9.743289e-10 4.039038e-10 3.708287e-09
8.722267e-10 1.226462e-09 4.361079e-09
-1.532356e-12 7.780769e-10 5.557423e-09
-5.557163e-09 3.338938e-09 1.123021e-09
-4.796978e-09 -1.645136e-09 5.420194e-09
-1.074367e-09 -2.509909e-11 -1.266582e-09
-4.522753e-09 -2.312994e-09 4.595817e-09
-3.491096e-09 6.358584e-11 7.905534e-10
-2.205988e-09 -5.438868e-10 1.967568e-11
-5.950837e-09 2.526354e-09 3.757207e-09
-2.467365e-09 -5.174964e-09 3.745773e-09
-3.147965e-09 2.704639e-09 -3.726033e-09
-2.265854e-09 -3.939078e-09 2.698554e-09
-5.655810e-09 -5.056420e-10 5.500224e-09
-2.670593e-09 1.624769e-09 -2.352586e-09
-4.205979e-09 -9.113460e-11 4.877826e-09
-2.882738e-09 -2.919585e-09 4.987536e-09
-5.765243e-09 -7.233382e-10 4.187727e-09
-3.350420e-09 -1.077156e-09 4.237526e-09
-5.391464e-10 -1.573972e-09 -5.192630e-11
-4.478469e-09 3.398657e-09 2.406915e-09
-3.432215e-09 2.894110e-09 -8.695035e-10
-3.767334e-10 -1.524034e-09 -3.346331e-09
3.354032e-10 -2.753199e-09 -2.682421e-09
-3.986841e-09 -2.430732e-09 7.759009e-09
-5.356328e-09 -1.464407e-09 7.720755e-09
-5.422598e-09 2.414379e-10 7.750722e-09
9.559570e-10 2.223170e-09 3.200865e-09
-3.340256e-09 1.385975e-09 1.032725e-09
-3.761619e-09 2.926311e-09 4.903069e-10
-6.522675e-09 1.294858e-09 4.880631e-09
-4.440411e-09 -6.412312e-11 3.700495e-09
-3.670008e-09 -2.500183e-09 6.264363e-09
-1.029116e-10 -7.800888e-11 -3.344549e-09
-1.368664e-09 -2.844705e-09 3.664035e-09
-5.193671e-09 1.240962e-09 6.755858e-09
-3.567564e-09 8.277058e-10 3.345866e-09
-4.143584e-09 2.193651e-09 5.454270e-09
-4.332588e-09 1.834480e-09 3.087414e-09
-3.322419e-10 -3.839758e-09 2.669460e-09
8.677526e-10 -3.602901e-09 4.304238e-09
-4.106794e-09 2.303622e-09 1.864644e-09
5.077436e-10 -1.956685e-09 -4.696009e-10
-4.212041e-09 2.699727e-09 4.084945e-09
1.437717e-09 -9.837573e-10 -3.095266e-09
-7.402183e-10 -3.879967e-09 6.146514e-09
-7.605622e-10 -6.760875e-10 1.202875e-09
-2.225623e-09 -3.292808e-09 6.564500e-09
-1.906918e-09 -2.249359e-09 5.502950e-09
-1.583166e-09 -3.209351e-10 2.834625e-09
-1.392704e-09 -1.710888e-09 4.299664e-09
-2.691527e-09 1.380823e-09 3.714988e-09
1.718222e-09 -8.706847e-10 -1.239740e-09
5.697363e-10 8.392178e-10 -1.384395e-09
1.451347e-09 -6.236519e-10 5.909982e-09
-3.176559e-09 1.133771e-09 6.097603e-09
1.013736e-09 6.629913e-10 -3.296251e-09
9.430427e-10 -4.493649e-09 3.004697e-09
-7.359751e-10 -6.981400e-10 4.023822e-09
9.911735e-10 -1.066302e-09 -8.476892e-11
6.589899e-10 -3.520583e-09 5.416248e-09
-3.004897e-09 8.384065e-10 7.447570e-09
-2.379432e-09 2.241044e-09 5.693545e-09
-1.184392e-09 -1.881207e-09 6.566908e-09
2.217803e-09 -4.492921e-09 3.607564e-09
1.954590e-09 -3.820509e-09 2.333113e-09
-2.092598e-10 -1.559828e-09 2.696860e-09
-2.714660e-10 -2.690163e-09 7.092347e-09
1.368443e-09 -1.625181e-09 1.639171e-09
1.967255e-09 -9.945706e-11 -2.157939e-09
-9.529095e-10 1.673419e-09 3.560020e-09
-7.607691e-10 -1.455326e-09 7.920436e-09
1.757657e-09 5.499914e-10 -1.843038e-11
2.499396e-09 -3.316795e-09 4.680454e-09
2.906236e-09 -3.961263e-09 3.448683e-09
1.849438e-09 1.529419e-09 -1.271309e-09
4.927300e-10 -2.346476e-09 6.174573e-09
-1.672376e-09 6.495986e-10 5.117602e-09
2.835070e-09 -2.323181e-10 8.927429e-10
2.573143e-09 3.431916e-10 -3.946192e-09
1.747368e-09 -2.650571e-09 4.882366e-09
3.467226e-09 -2.729478e-09 2.407988e-09
3.356326e-09 7.153955e-10 -2.184999e-09
2.624319e-09 2.423298e-09 -2.717498e-09
2.699583e-09 2.205801e-09 -4.130508e-09
3.536381e-09 9.491104e-10 -3.902971e-09
4.142606e-09 1.386416e-09 -5.283308e-09
1.211216e-09 -1.392533e-09 4.232282e-09
5.679688e-10 -8.626170e-10 7.248218e-09
2.475323e-09 -7.226325e-10 2.084549e-09
1.310759e-09 1.529782e-09 6.743790e-10
2.026417e-09 1.646725e-09 -1.507801e-10
4.607258e-09 1.754372e-09 -3.542050e-09
2.257506e-10 1.259465e-09 7.682913e-09
1.448274e-09 1.214029e-09 2.050916e-09
2.891425e-09 -2.292900e-09 3.495606e-09
2.061958e-09 -1.484498e-10 3.418281e-09
3.568185e-09 -2.577983e-10 2.052787e-09
4.526426e-09 2.925210e-09 -3.478669e-09
3.140312e-09 1.024090e-09 -8.482436e-10
3.378337e-09 1.576841e-09 -1.838564e-09
4.870469e-09 2.528660e-09 -5.093002e-09
3.436969e-09 9.574368e-10 8.682850e-10
5.150578e-09 2.015685e-09 -6.016835e-09
5.407709e-09 1.505742e-09 -4.639934e-09
3.748632e-09 6.681304e-11 -2.385451e-10
3.233665e-09 8.518645e-10 2.780165e-09
6.541275e-09 1.415527e-09 -5.782791e-09
5.846363e-09 2.688646e-09 -4.016121e-09
7.260224e-09 3.030442e-09 -6.788623e-09
6.663444e-09 2.034266e-09 -5.098661e-09
7.447149e-09 2.150626e-09 -6.443202e-09
6.276934e-09 3.530714e-09 -4.755268e-09
7.585302e-09 3.429386e-09 -5.552728e-09
8.784987e-09 2.913429e-09 -5.883917e-09
8.426773e-09 2.792100e-09 -7.116248e-09
8.445592e-09 4.116154e-09 -6.784579e-09
9.425983e-09 3.016541e-09 -6.689835e-09
1.031634e-08 4.412050e-09 -7.808413e-09
1.020467e-08 4.973806e-09 -7.841279e-09
9.444063e-09 3.957626e-09 -5.991107e-09
1.107244e-08 4.230931e-09 -6.922285e-09
1.006373e-08 4.827434e-09 -6.178735e-09
1.130487e-08 5.008040e-09 -8.613205e-09
1.134420e-08 6.414839e-09 -7.499079e-09
1.120475e-08 5.344997e-09 -6.530797e-09
1.280177e-08 4.836685e-09 -8.251618e-09
1.139826e-08 6.524594e-09 -1.008270e-08
1.160749e-08 5.774051e-09 -1.027696e-08
1.133224e-08 6.245837e-09 -9.002708e-09
1.222985e-08 5.068333e-09 -9.081188e-09
1.171239e-08 5.775787e-09 -7.057988e-09
1.290744e-08 5.562067e-09 -7.988989e-09
1.341100e-08 5.023452e-09 -9.148972e-09
1.391876e-08 5.401388e-09 -1.068405e-08
1.184589e-08 6.958075e-09 -8.709605e-09
1.428601e-08 6.708227e-09 -1.014894e-08
1.382101e-08 6.280284e-09 -8.724355e-09
1.354292e-08 7.764148e-09 -9.039479e-09
1.937927e-09 1.588072e-09 -7.110445e-10
-4.335059e-09 -3.152200e-09 7.298099e-09
7.353687e-09 2.590534e-09 -6.615913e-09
7.422763e-09 3.229914e-09 -6.170676e-09
1.250720e-08 6.531541e-09 -1.138052e-08
2.373864e-09 1.243610e-09 7.713320e-10
-4.010805e-09 2.707480e-10 -6.887148e-10
8.185145e-09 3.171407e-09 -5.718323e-09
3.968597e-10 1.984238e-10 7.465565e-09
-2.523151e-10 4.070593e-10 -1.325489e-09
-3.072612e-09 -8.904571e-10 -2.398777e-09
7.843499e-09 2.911271e-09 -6.952436e-09
-4.456842e-09 1.602177e-09 -3.250768e-09
-5.643395e-09 1.280086e-09 1.522649e-09
-4.034137e-11 1.449941e-09 3.960550e-09
1.331282e-09 -1.008093e-09 5.071132e-09
1.026051e-08 4.692928e-09 -7.824846e-09
-4.512329e-09 -3.834610e-09 -2.471982e-09
-3.934206e-09 2.614966e-09 1.177475e-09
-3.245404e-09 -2.887809e-09 4.348576e-09
-6.073388e-09 2.605718e-09 1.484857e-09
1.113860e-08 4.787964e-09 -6.726541e-09
1.121091e-10 1.018771e-09 6.620168e-09
2.334123e-10 3.806044e-10 -2.364472e-09
4.231161e-10 1.808501e-09 4.024668e-09
-4.659866e-09 -1.979065e-09 5.008006e-09
-1.637791e-09 -2.547032e-09 4.583493e-09
-4.120044e-09 3.162484e-09 1.448611e-09
-2.143653e-09 -2.456476e-09 -3.610730e-09
1.327578e-08 6.654216e-09 -1.147006e-08
[...]
POINT_DATA 1605
VECTORS vector_force float
-2.540670e+02 2.888497e+02 -7.655610e+01 
1.085826e+02 4.718725e+02 -7.053879e+01 
9.579808e+02 2.457352e+02 -3.328752e+01 
2.071565e+02 -2.668938e+02 1.752729e+02 
3.796283e+02 -1.517560e+02 -2.101024e+02 
-2.069800e+01 -4.664997e+02 4.490375e+02 
-3.749098e+02 -2.132545e+02 -4.799261e+02 
-5.763674e+01 -1.338732e+03 1.207649e+02 
4.426447e+02 3.477299e+02 -3.600556e+02 
-5.101694e+00 -5.298852e+00 -4.622069e+02 
-2.631219e+01 2.481165e+02 -5.494431e+02 
-2.004350e+02 1.108949e+02 7.565468e+01 
6.942500e+01 5.226404e+02 -1.029898e+03 
-2.820104e+02 2.671999e+02 -3.923051e+02 
-3.093304e+02 9.584005e+02 1.635133e+02 
7.958426e+02 7.012182e+02 -1.074672e+02 
2.995345e+02 3.284570e+02 -4.884912e+01 
4.538028e+02 -1.680115e+02 -2.234762e+02 
-5.696817e+02 2.280033e+02 3.590739e+02 
6.688025e+02 5.340423e+02 4.047135e+02 
7.812936e+02 -1.569314e+02 -1.094487e+03 
4.579716e+02 -6.426144e+02 -8.177840e+01 
1.205404e+01 -1.677677e+02 -3.241557e+02 
2.603795e+02 -2.351219e+02 6.116014e+01 
-5.584685e+02 -1.618407e+02 -4.448494e+02 
2.307140e+02 3.811636e+02 3.298527e+02 
3.463213e+02 -8.195625e+02 -8.179980e+02 
4.058990e+02 1.418394e+01 1.823314e+02 
1.225639e+01 6.222665e+02 -4.367238e+01 
-2.037949e+02 -6.905960e+02 2.551295e+02 
8.601423e+02 6.585768e+02 2.926226e+02 
-3.270655e+02 7.966591e+00 2.246218e+02 
5.752650e+02 7.791479e+02 -1.231425e+02 
8.994537e+01 3.046816e+02 5.580889e+01 
2.433487e+02 -1.071860e+03 -3.387893e+02 
-2.223938e+02 3.868201e+02 5.790507e+02 
-4.918325e+02 -8.373336e+02 2.498297e+02 
-4.713743e+02 -1.018612e+02 4.187214e+02 
1.806756e+02 -2.156944e+02 -2.091840e+02 
5.745189e+02 -2.121218e+02 -3.049083e+02 
1.510178e+02 2.856528e+02 3.953656e+02 
1.447976e+02 -5.170944e+02 -1.094999e+03 
1.610461e+02 -2.090194e+02 -1.592861e+02 
-2.676704e+00 -4.659487e+02 -2.618584e+02 
-2.778927e+01 1.611188e+02 9.748023e+01 
-2.171346e+02 1.323394e+02 6.576953e+02 
9.777082e+02 -4.063936e+02 4.606053e+02 
-6.949234e+02 -5.264760e+02 -2.739155e+02 
-4.319420e+02 -2.639859e+02 -1.003461e+03 
1.230508e+02 -5.611964e+02 2.179500e+02 
5.075094e+01 2.282707e+02 -4.154104e+02 
2.897021e+01 4.925921e+01 3.559664e+02 
-1.144160e+03 1.842646e+02 -3.143769e+02 
6.293428e+01 3.498695e+02 3.119010e+02 
-3.518065e+02 -6.242241e+02 -9.045053e+02 
-6.680431e+02 -4.773473e+02 -2.355877e+01 
-1.035043e+02 -2.661268e+02 7.902753e+02 
-6.536327e+02 -5.066629e+02 7.793368e+02 
-4.584402e+02 -4.614046e+01 -5.785418e+02 
8.764140e+02 -4.181865e+02 3.968262e+02 
-7.284935e+01 3.155280e+02 1.213457e+01 
-3.571320e+02 -2.193981e+02 2.680257e+02 
-1.378020e+02 3.763030e+02 2.221738e+02 
1.030974e+03 2.009569e+02 -1.524926e+02 
2.211802e+02 -7.797234e+01 -9.737226e+01 
-4.146888e+01 -1.660952e+02 -1.145398e+03 
7.124579e+02 -7.799513e+02 6.302619e+01 
5.478444e+01 1.680677e+02 2.118117e+02 
6.978104e+02 2.723706e+02 -6.115601e+02 
-6.026307e+01 -5.154379e+02 4.345330e+02 
-1.459146e+03 -8.956788e+02 1.197792e+03 
-1.006014e+02 4.089297e+02 4.085179e+02 
3.450021e+02 -1.775527e+02 9.024232e+01 
1.063481e+02 -1.909243e+02 -1.109292e+02 
1.161562e+02 -1.754415e+02 2.027887e+02 
1.808080e+02 -5.467873e+02 6.121614e+01 
1.762960e+02 1.912727e+02 -4.966392e+02 
-3.394338e+02 -4.286573e+02 1.184735e+03 
-2.776716e+01 -6.748182e+02 4.731085e+01 
-8.775045e+01 6.310769e+02 2.991824e+01 
1.149858e+02 -6.610468e+02 5.657759e+02 
-1.112868e+03 -4.666532e+02 6.906648e+02 
7.001027e+00 3.147330e+02 2.085085e+02 
3.796485e+02 5.199761e+02 7.468853e+02 
-8.260511e+00 3.702433e+02 -1.452763e+02 
6.580056e+02 -6.168644e+02 -9.378270e+02 
1.308804e+03 -7.960511e+01 1.533085e+02 
1.310155e+03 -3.516967e+02 -6.935135e+01 
1.235562e+03 -1.048615e+03 -1.418535e+03 
6.900697e+02 -4.201530e+02 2.035565e+02 
1.891937e+02 -7.459901e+01 -2.532082e+02 
1.355838e+02 4.877794e+01 -9.996499e+02 
2.502987e+02 -6.220295e+02 4.420620e+02 
-1.537522e+02 1.068154e+03 -1.075336e+02 
-1.526454e+02 2.078754e+02 7.600157e+02 
1.150205e+03 -9.873166e+02 -3.903820e+02 
3.806444e+02 -4.286429e+02 -3.252382e+01 
-8.727943e+02 -2.098300e+02 1.354904e+03 
-5.967066e+01 -3.353570e+02 -1.249353e+02 
-7.537431e+02 1.318048e+02 -3.564492e+02 
-4.544151e+02 5.219381e+02 -2.607576e+02 
-5.681515e+01 -3.816791e+02 1.516332e+03 
4.263352e+01 2.386411e+02 -3.939220e+02 
-5.649836e+02 9.243964e+02 -9.183236e+02 
3.524820e+02 1.120240e+02 1.503990e+02 
1.159865e+03 -6.034332e+02 -3.462688e+02 
-3.963346e+01 -6.558276e+02 1.326190e+02 
-8.490644e+02 -3.243616e+02 -8.387591e+02 
1.612725e+02 -2.388447e+02 -1.817925e+02 
2.935442e+02 -1.086206e+02 -4.070060e+02 
4.570857e+01 -7.165202e+02 1.003159e+02 
7.485805e+02 -9.658028e+02 -1.954642e+02 
6.234841e+02 2.375203e+02 -3.623287e+02 
2.901636e+02 -5.235796e+02 3.086716e+02 
2.493104e+02 -5.536541e+02 3.942447e+02 
5.914678e+02 -1.642067e+01 -6.288692e+02 
-7.567593e+02 3.012741e+02 2.598095e+02 
3.112658e+02 -4.978537e+02 -4.067782e+02 
7.971681e+02 -4.819943e+02 -2.273962e+02 
2.812638e+02 2.884663e+02 7.783691e+02 
-4.799792e+02 3.030488e+01 -2.204195e+02 
-4.557403e+02 -3.138322e+02 4.497999e+02 
1.129884e+02 -2.531206e+02 -2.909480e+02 
3.787802e+02 1.658803e+02 -3.690502e+02 
6.734869e+02 -4.359509e+01 -1.818805e+02 
-8.925300e+02 -1.038586e+02 5.305425e+02 
-2.695788e+02 -4.361854e+02 7.642100e+02 
-1.506006e+01 2.892427e+02 -2.257367e+02 
1.052406e+02 6.347005e+02 5.694486e+02 
1.114829e+02 -3.855453e+02 3.096534e+02 
2.819069e+02 -2.170701e+01 3.034805e+02 
7.456884e+02 -6.680635e+02 -2.111818e+02 
4.231538e+01 -6.219229e+02 -1.033312e+02 
1.357463e+02 -4.182799e+01 3.709774e+02 
2.891608e+02 -8.646881e+02 3.292092e+02 
-6.501653e+00 -2.215858e+02 8.822376e+01 
1.505485e+02 3.975090e+02 1.048207e+03 
-1.281242e+02 -7.270523e+02 2.080423e+02 
8.945978e+02 7.879045e+02 1.056535e+02 
7.473028e+02 -2.359934e+01 -2.175502e+02 
-8.535571e+01 9.777338e+01 -3.417456e+02 
5.315784e+00 -4.997556e+02 1.037279e+03 
-2.200257e+02 -5.379710e+02 5.030042e+02 
2.072989e+02 -2.852226e+02 1.242680e+02 
-1.046721e+03 -5.749622e+02 -3.249917e+02 
-3.491556e+02 -3.351590e+02 2.792075e+02 
-1.871877e+02 1.602925e+02 1.791725e+02 
6.684395e+01 8.263292e+02 -7.861589e+01 
2.996804e+02 9.050546e+02 -7.840070e+02 
4.406512e+02 2.738186e+02 5.965645e+02 
-7.662618e+02 -3.949061e+01 6.559558e+02 
9.928835e+01 -3.064620e+02 1.001520e+02 
4.408055e+02 -6.794462e+02 1.123333e+03 
9.122864e+02 -4.244543e+02 3.204030e+02 
2.331108e+02 -5.869395e+01 4.430216e+02 
-3.340064e+02 -3.191252e+02 -3.271373e+02 
1.567459e+03 7.047091e+02 -2.508984e+02 
-8.313882e+01 2.564562e+02 3.754839e+02 
-4.686684e+00 3.977398e+02 1.593513e+02 
2.591982e+01 1.305997e+02 1.413585e+02 
-1.413441e+03 1.358452e+03 -1.130218e+03 
-1.923449e+02 -4.022332e+02 5.920388e+02 
3.523666e+02 2.544855e+02 9.130509e+00 
-6.114923e+01 -7.742170e+02 3.002277e+02 
-4.447995e+02 -6.779420e+02 3.806231e+02 
5.744412e+02 -4.342222e+02 -5.078329e+02 
-3.416126e+02 8.647873e+02 -4.572011e+01 
-2.505914e+02 -1.580974e+02 9.294392e+02 
-6.451868e+01 4.434319e+01 3.254947e+02 
-3.481603e+02 -8.015469e+02 3.091922e+02 
-2.003534e+02 1.185430e+02 5.836642e+02 
4.401455e+02 -1.727112e+03 -8.828837e+01 
8.896433e+01 7.123502e+02 -8.021509e+02 
6.492345e+02 -1.149274e+03 -6.161945e+02 
9.988979e+02 6.996513e+02 1.763833e+02 
-7.668087e+02 -1.194443e+02 -6.144711e+02 
2.208233e+02 -1.347617e+03 6.599278e+02 
4.567449e+02 -1.412618e+02 6.703174e+02 
-1.433164e+03 2.073357e+02 2.245891e+02 
7.299622e+02 1.612525e+02 3.013664e+02 
2.801202e+02 1.150629e+02 -3.643494e+02 
-1.171036e+02 5.332928e+01 1.059827e+03 
-2.413473e+02 -3.513460e+02 -4.498913e+02 
1.611106e+02 -2.935947e+02 -3.393763e+02 
-1.437354e+02 7.920467e+02 -1.189555e+02 
3.843609e+02 -3.562063e+02 9.820685e+02 
-8.495724e+02 -5.889990e+01 3.599456e+02 
-2.950908e+02 -3.410368e+02 1.092178e+03 
-5.323547e+02 -5.026718e+02 -3.046062e+02 
-1.894592e+01 -1.390725e+03 4.010781e+02 
-9.215543e+01 -8.942296e+02 7.993930e+02 
-1.066237e+03 -5.241199e+02 -2.060116e+02 
-2.858257e+02 -1.380207e+02 -5.805696e+01 
-9.155146e+02 -6.074148e+02 -6.448370e+01 
-1.171170e+02 -4.417141e+02 4.534395e+02 
6.662424e+01 -5.259132e+02 -1.279126e+02 
4.088078e+02 5.248174e+02 -1.268779e+02 
-1.407916e+03 3.410955e+02 -1.011610e+02 
-5.597239e+02 -5.055255e+02 1.360573e+02 
1.740245e+02 2.529006e+02 1.904593e+02 
-2.838025e+02 1.430019e+02 4.022017e+02 
4.186391e+02 4.003003e+02 4.790696e+02 
1.625736e+00 3.219613e+02 -4.385371e+02 
1.004721e+03 9.546630e+02 2.899971e+02 
-8.738045e+02 5.075379e+02 1.396467e+01 
-8.118710e+02 -3.471313e+02 -1.101958e+02 
-7.242089e+02 -4.744528e+02 -4.932542e+00 
-9.527821e+02 3.187898e+02 -3.523222e+01 
-4.554825e+02 -7.427990e+02 8.221700e+02 
1.647411e+03 7.991824e+02 -4.030893e+02 
-4.112887e+02 3.116812e+01 -7.512909e+02 
9.574219e+01 -1.531143e+02 1.922301e+02 
1.603035e+02 1.040093e+02 -8.593299e+02 
0.000000e+00 0.000000e+00 0.000000e+00 
0.000000e+00 0.000000e+00 0.000000e+00 
0.000000e+00 0.000000e+00 0.000000e+00 
0.000000e+00 0.000000e+00 0.000000e+00 
0.000000e+00 0.000000e+00 0.000000e+00 
0.000000e+00 0.000000e+00 0.000000e+00 
0.000000e+00 0.000000e+00 0.000000e+00 
0.000000e+00 0.000000e+00 0.000000e+00 
0.000000e+00 0.000000e+00 0.000000e+00 
0.000000e+00 0.000000e+00 0.000000e+00 
0.000000e+00 0.000000e+00 0.000000e+00 
0.000000e+00 0.000000e+00 0.000000e+00 
0.000000e+00 0.000000e+00 0.000000e+00 
0.000000e+00 0.000000e+00 0.000000e+00 
0.000000e+00 0.000000e+00 0.000000e+00 
0.000000e+00 0.000000e+00 0.000000e+00 
0.000000e+00 0.000000e+00 0.000000e+00 
0.000000e+00 0.000000e+00 0.000000e+00 
0.000000e+00 0.000000e+00 0.000000e+00 
0.000000e+00 0.000000e+00 0.000000e+00 
0.000000e+00 0.000000e+00 0.000000e+00 
0.000000e+00 0.000000e+00 0.000000e+00 
0.000000e+00 0.000000e+00 0.000000e+00 
0.000000e+00 0.000000e+00 0.000000e+00 
0.000000e+00 0.000000e+00 0.000000e+00 
0.000000e+00 0.000000e+00 0.000000e+00 
0.000000e+00 0.000000e+00 0.000000e+00 
0.000000e+00 0.000000e+00 0.000000e+00 
0.000000e+00 0.000000e+00 0.000000e+00 
0.000000e+00 0.000000e+00 0.000000e+00 
0.000000e+00 0.000000e+00 0.000000e+00 
0.000000e+00 0.000000e+00 0.000000e+00 
0.000000e+00 0.000000e+00 0.000000e+00 
0.000000e+00 0.000000e+00 0.000000e+00 
0.000000e+00 0.000000e+00 0.000000e+00 
0.000000e+00 0.000000e+00 0.000000e+00 
0.000000e+00 0.000000e+00 0.000000e+00 
0.000000e+00 0.000000e+00 0.000000e+00 
0.000000e+00 0.000000e+00 0.000000e+00 
0.000000e+00 0.000000e+00 0.000000e+00 
0.000000e+00 0.000000e+00 0.000000e+00 
0.000000e+00 0.000000e+00 0.000000e+00 
0.000000e+00 0.000000e+00 0.000000e+00 
0.000000e+00 0.000000e+00 0.000000e+00 
0.000000e+00 0.000000e+00 0.000000e+00 
0.000000e+00 0.000000e+00 0.000000e+00 
0.000000e+00 0.000000e+00 0.000000e+00 
0.000000e+00 0.000000e+00 0.000000e+00 
0.000000e+00 0.000000e+00 0.000000e+00 
0.000000e+00 0.000000e+00 0.000000e+00 
0.000000e+00 0.000000e+00 0.000000e+00 
0.000000e+00 0.000000e+00 0.000000e+00 
0.000000e+00 0.000000e+00 0.000000e+00 
0.000000e+00 0.000000e+00 0.000000e+00 
0.000000e+00 0.000000e+00 0.000000e+00 
0.000000e+00 0.000000e+00 0.000000e+00 
0.000000e+00 0.000000e+00 0.000000e+00 
0.000000e+00 0.000000e+00 0.000000e+00 
0.000000e+00 0.000000e+00 0.000000e+00 
0.000000e+00 0.000000e+00 0.000000e+00 
0.000000e+00 0.000000e+00 0.000000e+00 
0.000000e+00 0.000000e+00 0.000000e+00 
0.000000e+00 0.000000e+00 0.000000e+00 
0.000000e+00 0.000000e+00 0.000000e+00 
0.000000e+00 0.000000e+00 0.000000e+00 
0.000000e+00 0.000000e+00 0.000000e+00 
0.000000e+00 0.000000e+00 0.000000e+00 
0.000000e+00 0.000000e+00 0.000000e+00 
0.000000e+00 0.000000e+00 0.000000e+00 
0.000000e+00 0.000000e+00 0.000000e+00 
0.000000e+00 0.000000e+00 0.000000e+00 
0.000000e+00 0.000000e+00 0.000000e+00 
0.000000e+00 0.000000e+00 0.000000e+00 
0.000000e+00 0.000000e+00 0.000000e+00 
0.000000e+00 0.000000e+00 0.000000e+00 
0.000000e+00 0.000000e+00 0.000000e+00 
0.000000e+00 0.000000e+00 0.000000e+00 
0.000000e+00 0.000000e+00 0.000000e+00 
0.000000e+00 0.000000e+00 0.000000e+00 
0.000000e+00 0.000000e+00 0.000000e+00 
0.000000e+00 0.000000e+00 0.000000e+00 
0.000000e+00 0.000000e+00 0.000000e+00 
0.000000e+00 0.000000e+00 0.000000e+00 
0.000000e+00 0.000000e+00 0.000000e+00 
0.000000e+00 0.000000e+00 0.000000e+00 
0.000000e+00 0.000000e+00 0.000000e+00 
0.000000e+00 0.000000e+00 0.000000e+00 
0.000000e+00 0.000000e+00 0.000000e+00 
0.000000e+00 0.000000e+00 0.000000e+00 
0.000000e+00 0.000000e+00 0.000000e+00 
0.000000e+00 0.000000e+00 0.000000e+00 
0.000000e+00 0.000000e+00 0.000000e+00 
0.000000e+00 0.000000e+00 0.000000e+00 
0.000000e+00 0.000000e+00 0.000000e+00 
0.000000e+00 0.000000e+00 0.000000e+00 
0.000000e+00 0.000000e+00 0.000000e+00 
0.000000e+00 0.000000e+00 0.000000e+00 
0.000000e+00 0.000000e+00 0.000000e+00 
0.000000e+00 0.000000e+00 0.000000e+00 
0.000000e+00 0.000000e+00 0.000000e+00 
0.000000e+00 0.000000e+00 0.000000e+00 
0.000000e+00 0.000000e+00 0.000000e+00 
0.000000e+00 0.000000e+00 0.000000e+00 
0.000000e+00 0.000000e+00 0.000000e+00 
0.000000e+00 0.000000e+00 0.000000e+00 
0.000000e+00 0.000000e+00 0.000000e+00 
0.000000e+00 0.000000e+00 0.000000e+00 
0.000000e+00 0.000000e+00 0.000000e+00 
0.000000e+00 0.000000e+00 0.000000e+00 
0.000000e+00 0.000000e+00 0.000000e+00 
0.000000e+00 0.000000e+00 0.000000e+00 
0.000000e+00 0.000000e+00 0.000000e+00 
0.000000e+00 0.000000e+00 0.000000e+00 
0.000000e+00 0.000000e+00 0.000000e+00 
0.000000e+00 0.000000e+00 0.000000e+00 
0.000000e+00 0.000000e+00 0.000000e+00 
0.000000e+00 0.000000e+00 0.000000e+00 
0.000000e+00 0.000000e+00 0.000000e+00 
0.000000e+00 0.000000e+00 0.000000e+00 
0.000000e+00 0.000000e+00 0.000000e+00 
0.000000e+00 0.000000e+00 0.000000e+00 
0.000000e+00 0.000000e+00 0.000000e+00 
0.000000e+00 0.000000e+00 0.000000e+00 
0.000000e+00 0.000000e+00 0.000000e+00 
0.000000e+00 0.000000e+00 0.000000e+00 
0.000000e+00 0.000000e+00 0.000000e+00 
0.000000e+00 0.000000e+00 0.000000e+00 
0.000000e+00 0.000000e+00 0.000000e+00 
0.000000e+00 0.000000e+00 0.000000e+00 
0.000000e+00 0.000000e+00 0.000000e+00 
0.000000e+00 0.000000e+00 0.000000e+00 
0.000000e+00 0.000000e+00 0.000000e+00 
0.000000e+00 0.000000e+00 0.000000e+00 
0.000000e+00 0.000000e+00 0.000000e+00 
0.000000e+00 0.000000e+00 0.000000e+00 
0.000000e+00 0.000000e+00 0.000000e+00 
0.000000e+00 0.000000e+00 0.000000e+00 
0.000000e+00 0.000000e+00 0.000000e+00 
0.000000e+00 0.000000e+00 0.000000e+00 
0.000000e+00 0.000000e+00 0.000000e+00 
0.000000e+00 0.000000e+00 0.000000e+00 
0.000000e+00 0.000000e+00 0.000000e+00 
0.000000e+00 0.000000e+00 0.000000e+00 
0.000000e+00 0.000000e+00 0.000000e+00 
0.000000e+00 0.000000e+00 0.000000e+00 
0.000000e+00 0.000000e+00 0.000000e+00 
0.000000e+00 0.000000e+00 0.000000e+00 
0.000000e+00 0.000000e+00 0.000000e+00 
0.000000e+00 0.000000e+00 0.000000e+00 
0.000000e+00 0.000000e+00 0.000000e+00 
0.000000e+00 0.000000e+00 0.000000e+00 
0.000000e+00 0.000000e+00 0.000000e+00 
0.000000e+00 0.000000e+00 0.000000e+00 
0.000000e+00 0.000000e+00 0.000000e+00 
0.000000e+00 0.000000e+00 0.000000e+00 
0.000000e+00 0.000000e+00 0.000000e+00 
0.000000e+00 0.000000e+00 0.000000e+00 
0.000000e+00 0.000000e+00 0.000000e+00 
0.000000e+00 0.000000e+00 0.000000e+00 
0.000000e+00 0.000000e+00 0.000000e+00 
0.000000e+00 0.000000e+00 0.000000e+00 
0.000000e+00 0.000000e+00 0.000000e+00 
0.000000e+00 0.000000e+00 0.000000e+00 
0.000000e+00 0.000000e+00 0.000000e+00 
0.000000e+00 0.000000e+00 0.000000e+00 
0.000000e+00 0.000000e+00 0.000000e+00 
0.000000e+00 0.000000e+00 0.000000e+00 
0.000000e+00 0.000000e+00 0.000000e+00 
0.000000e+00 0.000000e+00 0.000000e+00 
0.000000e+00 0.000000e+00 0.000000e+00 
0.000000e+00 0.000000e+00 0.000000e+00 
0.000000e+00 0.000000e+00 0.000000e+00 
0.000000e+00 0.000000e+00 0.000000e+00 
0.000000e+00 0.000000e+00 0.000000e+00 
0.000000e+00 0.000000e+00 0.000000e+00 
0.000000e+00 0.000000e+00 0.000000e+00 
0.000000e+00 0.000000e+00 0.000000e+00 
0.000000e+00 0.000000e+00 0.000000e+00 
0.000000e+00 0.000000e+00 0.000000e+00 
0.000000e+00 0.000000e+00 0.000000e+00 
0.000000e+00 0.000000e+00 0.000000e+00 
0.000000e+00 0.000000e+00 0.000000e+00 
0.000000e+00 0.000000e+00 0.000000e+00 
0.000000e+00 0.000000e+00 0.000000e+00 
0.000000e+00 0.000000e+00 0.000000e+00 
0.000000e+00 0.000000e+00 0.000000e+00 
0.000000e+00 0.000000e+00 0.000000e+00 
0.000000e+00 0.000000e+00 0.000000e+00 
0.000000e+00 0.000000e+00 0.000000e+00 
0.000000e+00 0.000000e+00 0.000000e+00 
0.000000e+00 0.000000e+00 0.000000e+00 
0.000000e+00 0.000000e+00 0.000000e+00 
0.000000e+00 0.000000e+00 0.000000e+00 
0.000000e+00 0.000000e+00 0.000000e+00 
0.000000e+00 0.000000e+00 0.000000e+00 
0.000000e+00 0.000000e+00 0.000000e+00 
0.000000e+00 0.000000e+00 0.000000e+00 
0.000000e+00 0.000000e+00 0.000000e+00 
0.000000e+00 0.000000e+00 0.000000e+00 
0.000000e+00 0.000000e+00 0.000000e+00 
0.000000e+00 0.000000e+00 0.000000e+00 
0.000000e+00 0.000000e+00 0.000000e+00 
0.000000e+00 0.000000e+00 0.000000e+00 
0.000000e+00 0.000000e+00 0.000000e+00 
0.000000e+00 0.000000e+00 0.000000e+00 
0.000000e+00 0.000000e+00 0.000000e+00 
0.000000e+00 0.000000e+00 0.000000e+00 
0.000000e+00 0.000000e+00 0.000000e+00 
0.000000e+00 0.000000e+00 0.000000e+00 
0.000000e+00 0.000000e+00 0.000000e+00 
0.000000e+00 0.000000e+00 0.000000e+00 
0.000000e+00 0.000000e+00 0.000000e+00 
0.000000e+00 0.000000e+00 0.000000e+00 
0.000000e+00 0.000000e+00 0.000000e+00 
0.000000e+00 0.000000e+00 0.000000e+00 
0.000000e+00 0.000000e+00 0.000000e+00 
0.000000e+00 0.000000e+00 0.000000e+00 
0.000000e+00 0.000000e+00 0.000000e+00 
0.000000e+00 0.000000e+00 0.000000e+00 
0.000000e+00 0.000000e+00 0.000000e+00 
0.000000e+00 0.000000e+00 0.000000e+00 
0.000000e+00 0.000000e+00 0.000000e+00 
0.000000e+00 0.000000e+00 0.000000e+00 
0.000000e+00 0.000000e+00 0.000000e+00 
0.000000e+00 0.000000e+00 0.000000e+00 
0.000000e+00 0.000000e+00 0.000000e+00 
0.000000e+00 0.000000e+00 0.000000e+00 
0.000000e+00 0.000000e+00 0.000000e+00 
0.000000e+00 0.000000e+00 0.000000e+00 
0.000000e+00 0.000000e+00 0.000000e+00 
0.000000e+00 0.000000e+00 0.000000e+00 
0.000000e+00 0.000000e+00 0.000000e+00 
0.000000e+00 0.000000e+00 0.000000e+00 
0.000000e+00 0.000000e+00 0.000000e+00 
0.000000e+00 0.000000e+00 0.000000e+00 
0.000000e+00 0.000000e+00 0.000000e+00 
0.000000e+00 0.000000e+00 0.000000e+00 
0.000000e+00 0.000000e+00 0.000000e+00 
0.000000e+00 0.000000e+00 0.000000e+00 
0.000000e+00 0.000000e+00 0.000000e+00 
0.000000e+00 0.000000e+00 0.000000e+00 
0.000000e+00 0.000000e+00 0.000000e+00 
0.000000e+00 0.000000e+00 0.000000e+00 
0.000000e+00 0.000000e+00 0.000000e+00 
0.000000e+00 0.000000e+00 0.000000e+00 
0.000000e+00 0.000000e+00 0.000000e+00 
0.000000e+00 0.000000e+00 0.000000e+00 
0.000000e+00 0.000000e+00 0.000000e+00 
0.000000e+00 0.000000e+00 0.000000e+00 
0.000000e+00 0.000000e+00 0.000000e+00 
0.000000e+00 0.000000e+00 0.000000e+00 
0.000000e+00 0.000000e+00 0.000000e+00 
0.000000e+00 0.000000e+00 0.000000e+00 
0.000000e+00 0.000000e+00 0.000000e+00 
0.000000e+00 0.000000e+00 0.000000e+00 
0.000000e+00 0.000000e+00 0.000000e+00 
0.000000e+00 0.000000e+00 0.000000e+00 
0.000000e+00 0.000000e+00 0.000000e+00 
0.000000e+00 0.000000e+00 0.000000e+00 
0.000000e+00 0.000000e+00 0.000000e+00 
0.000000e+00 0.000000e+00 0.000000e+00 
0.000000e+00 0.000000e+00 0.000000e+00 
0.000000e+00 0.000000e+00 0.000000e+00 
0.000000e+00 0.000000e+00 0.000000e+00 
0.000000e+00 0.000000e+00 0.000000e+00 
0.000000e+00 0.000000e+00 0.000000e+00 
0.000000e+00 0.000000e+00 0.000000e+00 
0.000000e+00 0.000000e+00 0.000000e+00 
0.000000e+00 0.000000e+00 0.000000e+00 
0.000000e+00 0.000000e+00 0.000000e+00 
0.000000e+00 0.000000e+00 0.000000e+00 
0.000000e+00 0.000000e+00 0.000000e+00 
0.000000e+00 0.000000e+00 0.000000e+00 
0.000000e+00 0.000000e+00 0.000000e+00 
0.000000e+00 0.000000e+00 0.000000e+00 
0.000000e+00 0.000000e+00 0.000000e+00 
0.000000e+00 0.000000e+00 0.000000e+00 