# vtk DataFile Version 3.1
*description-name of input file* step:301 
ASCII
DATASET UNSTRUCTURED_GRID
POINTS 1605 FLOAT
-7.080235e-09 -5.850506e-09 2.616409e-10
-7.558484e-09 -4.657495e-09 -7.136424e-10
-6.189781e-09 -5.239544e-09 -7.157763e-10
-7.644703e-09 -4.307878e-09 1.983327e-09
-5.434390e-09 -5.959019e-09 -1.601418e-10
1.206779e-08 7.237190e-09 -1.067681e-08
1.370459e-08 7.296205e-09 -1.065415e-08
1.262135e-08 6.007357e-09 -1.179619e-08
-5.978275e-09 -6.072555e-09 9.371615e-10
-6.117790e-09 -3.083809e-09 7.550286e-10
-4.226532e-09 -4.561830e-09 -1.171998e-09
-6.288720e-09 -3.019027e-09 -6.556224e-10
-5.599968e-09 -5.262712e-09 2.442827e-09
-5.918254e-09 -3.626626e-09 1.796181e-09
-5.106061e-09 -3.851095e-09 -1.513172e-09
-7.259638e-09 -4.013482e-09 3.357418e-09
-3.309597e-09 -5.482503e-09 2.853724e-10
-6.884894e-09 -1.422425e-09 6.742414e-11
-5.500338e-09 -1.685122e-09 -1.123469e-09
-3.948971e-09 -4.049214e-09 -3.680101e-09
-5.173597e-09 -2.837326e-09 -2.706459e-09
-4.338335e-09 -2.119064e-09 -3.897493e-09
-6.231751e-09 -2.609756e-09 2.454719e-09
-6.122471e-09 1.655967e-10 -2.334376e-09
-6.386134e-09 -9.864356e-11 -8.442267e-10
-3.741923e-09 -4.697865e-09 1.906682e-09
-7.112396e-09 -1.644748e-09 1.468899e-09
-5.887183e-09 -3.722558e-09 4.275875e-09
-4.180276e-09 -2.057481e-09 -4.351715e-10
-7.527416e-09 -1.951047e-09 3.454054e-09
-2.409865e-09 -4.483717e-09 -2.366462e-09
-2.822281e-09 -2.728864e-09 -3.649637e-09
-2.076642e-09 -4.040039e-09 -3.449582e-09
-3.436163e-09 -3.418582e-09 -5.798979e-10
-5.985589e-09 -2.485722e-09 4.304469e-09
-4.489614e-09 -8.708891e-10 -2.507837e-09
-6.288429e-09 -6.074423e-10 2.024121e-09
-4.948676e-09 -4.994679e-10 2.837306e-10
-3.130407e-09 -1.826021e-09 -2.097675e-09
-4.110206e-09 -4.036173e-09 3.842419e-09
-5.006212e-09 3.688782e-10 -8.373153e-10
-3.895417e-09 8.861627e-10 -4.784475e-09
-3.846218e-09 3.202719e-10 -2.873010e-09
-4.768786e-09 1.177294e-09 -3.341774e-09
-4.095132e-09 -2.685502e-09 2.019641e-09
-1.598306e-09 -3.058993e-09 -6.986777e-10
-4.536613e-09 2.637194e-09 -3.895123e-09
-2.947206e-09 -1.524368e-09 -3.584964e-09
-3.262407e-09 -8.143084e-11 -3.029922e-09
-1.699632e-09 -1.498198e-09 -3.508860e-09
-3.594903e-09 5.278073e-10 -8.691760e-10
-3.007545e-09 -2.085941e-09 5.244505e-11
-3.016772e-09 1.745858e-10 -4.587209e-09
-1.812356e-09 -2.140619e-09 -1.931483e-09
-3.909818e-09 -3.308543e-10 8.082132e-09
-2.235262e-09 -1.717048e-09 7.474447e-09
-1.804027e-09 2.624666e-10 7.386350e-09
-1.567472e-09 9.424164e-10 -4.057806e-09
-5.708334e-09 -2.938863e-09 6.014401e-09
-4.194499e-09 2.313389e-09 -2.336917e-09
-3.522256e-09 -2.777030e-09 3.716663e-09
-4.507688e-09 -6.531289e-10 2.442447e-09
-3.941685e-09 -1.590403e-09 1.154712e-09
-5.408418e-09 2.248000e-09 -3.789583e-10
-4.791715e-09 8.155161e-10 1.354337e-09
-6.549484e-09 1.726323e-09 1.644221e-09
-4.531184e-09 -4.357973e-09 5.798105e-09
-4.646552e-09 -3.595778e-09 6.807451e-09
-6.040110e-09 -1.644808e-09 6.675637e-09
-2.017945e-09 1.764740e-09 2.020232e-09
6.707030e-11 2.288789e-09 3.692319e-09
-1.046816e-09 1.811816e-09 9.276071e-10
-4.363420e-09 8.372141e-10 -1.158261e-09
-2.994208e-09 -4.502227e-09 5.383704e-09
1.012850e-09 1.876745e-10 3.690404e-09
8.240721e-10 1.056435e-09 4.229691e-09
-8.306884e-11 6.824282e-10 5.446696e-09
-5.450326e-09 3.389628e-09 1.001564e-09
-4.755650e-09 -1.548579e-09 5.406533e-09
-1.192995e-09 9.906236e-11 -1.488208e-09
-4.515334e-09 -2.275501e-09 4.534254e-09
-3.459977e-09 4.763493e-11 4.341584e-10
-2.295397e-09 -4.590752e-10 -2.545566e-11
-5.881483e-09 2.561293e-09 3.927701e-09
-2.366509e-09 -5.259204e-09 3.699860e-09
-2.945246e-09 2.753898e-09 -3.411828e-09
-2.070640e-09 -3.768877e-09 2.615257e-09
-5.836423e-09 -4.447780e-10 5.505559e-09
-2.559116e-09 1.892423e-09 -2.305769e-09
-4.367349e-09 -1.162909e-10 4.753968e-09
-2.777592e-09 -2.893636e-09 4.807020e-09
-5.732387e-09 -7.242391e-10 4.023697e-09
-3.306064e-09 -9.288965e-10 4.154363e-09
-7.613907e-10 -1.386906e-09 9.127929e-11
-4.476479e-09 3.553904e-09 2.368298e-09
-3.146185e-09 2.877482e-09 -8.818734e-10
-1.837156e-10 -1.457943e-09 -3.371714e-09
2.103287e-10 -2.856671e-09 -2.585291e-09
-4.081583e-09 -2.426259e-09 7.909686e-09
-5.425162e-09 -1.391072e-09 7.990160e-09
-5.337076e-09 2.879883e-10 7.768265e-09
8.374369e-10 2.066586e-09 2.903310e-09
-3.434833e-09 1.424601e-09 8.520724e-10
-3.557943e-09 2.773433e-09 5.915065e-10
-6.375281e-09 1.318049e-09 5.115967e-09
-4.740571e-09 1.087178e-10 3.733969e-09
-3.654131e-09 -2.511048e-09 6.154718e-09
2.957553e-11 -6.279854e-11 -3.196523e-09
-1.304728e-09 -2.824916e-09 3.588499e-09
-4.864059e-09 1.293786e-09 6.702135e-09
-3.587933e-09 8.640987e-10 3.315956e-09
-4.359735e-09 2.059541e-09 5.387642e-09
-4.321975e-09 1.729035e-09 3.106453e-09
-3.663498e-10 -3.943542e-09 2.611776e-09
8.303558e-10 -3.811063e-09 4.182196e-09
-4.101799e-09 2.428546e-09 1.807075e-09
2.301119e-10 -1.976077e-09 -7.313232e-10
-4.147672e-09 2.978927e-09 4.023794e-09
1.307478e-09 -1.109735e-09 -2.735555e-09
-6.907638e-10 -4.085771e-09 6.178655e-09
-7.080561e-10 -6.534434e-10 1.125189e-09
-2.272379e-09 -3.386748e-09 6.529694e-09
-1.901360e-09 -2.183043e-09 5.437120e-09
-1.551348e-09 -3.498940e-10 2.851407e-09
-1.460343e-09 -1.725556e-09 4.322762e-09
-2.461756e-09 1.424276e-09 3.732935e-09
1.441357e-09 -1.119593e-09 -1.321458e-09
5.010199e-10 8.903444e-10 -1.264357e-09
1.365132e-09 -4.551840e-10 5.788639e-09
-3.286037e-09 1.108407e-09 5.925398e-09
9.299406e-10 8.266310e-10 -2.968142e-09
8.163664e-10 -4.457594e-09 2.798781e-09
-8.894463e-10 -6.586042e-10 4.019535e-09
9.461665e-10 -1.167609e-09 -1.711346e-10
5.073410e-10 -3.880615e-09 5.390977e-09
-3.120847e-09 8.911352e-10 7.258178e-09
-2.568442e-09 2.108351e-09 5.397676e-09
-1.254080e-09 -1.818169e-09 6.442678e-09
1.777867e-09 -4.668985e-09 3.666359e-09
2.120677e-09 -3.634547e-09 2.389138e-09
-1.978338e-10 -1.514401e-09 2.642590e-09
-2.459641e-10 -2.872553e-09 6.896838e-09
1.480321e-09 -1.635496e-09 1.731230e-09
2.080529e-09 -1.211905e-10 -2.244225e-09
-8.838131e-10 1.560546e-09 3.601369e-09
-6.807266e-10 -1.363853e-09 7.856473e-09
1.640630e-09 2.835432e-10 -1.573842e-10
2.317224e-09 -3.397904e-09 4.839403e-09
2.908331e-09 -4.130483e-09 3.816003e-09
1.899215e-09 1.527013e-09 -1.265915e-09
5.731202e-10 -2.204805e-09 6.169343e-09
-1.888719e-09 6.851385e-10 5.164004e-09
2.943134e-09 -3.808795e-10 6.664385e-10
2.709909e-09 3.501779e-10 -3.730974e-09
1.677960e-09 -2.588996e-09 4.983196e-09
3.617306e-09 -2.997784e-09 2.559300e-09
3.299624e-09 6.937665e-10 -2.175083e-09
2.812287e-09 2.555606e-09 -2.530965e-09
2.964563e-09 2.081011e-09 -4.136539e-09
3.888404e-09 9.646414e-10 -3.899568e-09
4.274582e-09 1.353101e-09 -5.176318e-09
1.356064e-09 -1.402283e-09 4.158295e-09
6.099761e-10 -8.999698e-10 7.440445e-09
2.692133e-09 -5.764397e-10 2.010809e-09
1.149018e-09 1.415866e-09 5.313285e-10
2.192703e-09 1.617177e-09 -2.927254e-10
4.636681e-09 1.493753e-09 -3.324196e-09
3.745685e-10 1.069672e-09 7.139715e-09
1.328568e-09 1.005918e-09 2.012381e-09
2.904225e-09 -2.322194e-09 3.556553e-09
2.232372e-09 -3.896584e-10 3.347178e-09
3.582776e-09 -1.719617e-11 1.827437e-09
4.563063e-09 2.543288e-09 -3.491135e-09
3.121701e-09 8.101312e-10 -8.787181e-10
3.323422e-09 1.908824e-09 -1.636401e-09
4.808592e-09 2.330715e-09 -4.987520e-09
3.251273e-09 8.738868e-10 6.522036e-10
5.408062e-09 1.610486e-09 -5.871194e-09
5.303500e-09 1.476015e-09 -4.651152e-09
3.519668e-09 1.737837e-12 -2.745960e-10
3.067004e-09 8.696347e-10 2.619393e-09
6.481405e-09 1.409044e-09 -5.883390e-09
5.822262e-09 2.827385e-09 -4.105568e-09
7.102390e-09 2.903649e-09 -6.627604e-09
6.866167e-09 2.285367e-09 -4.735411e-09
7.381955e-09 2.066317e-09 -6.319656e-09
6.277390e-09 3.662232e-09 -5.017942e-09
7.472904e-09 3.625734e-09 -5.742474e-09
8.575897e-09 2.853774e-09 -5.873846e-09
8.475689e-09 2.951467e-09 -7.084620e-09
8.378150e-09 4.073808e-09 -7.075963e-09
9.421361e-09 3.188340e-09 -6.877306e-09
1.045638e-08 4.294512e-09 -7.918521e-09
1.029819e-08 4.917404e-09 -8.031393e-09
9.626272e-09 3.767113e-09 -6.272730e-09
1.104193e-08 3.914929e-09 -6.893079e-09
1.021294e-08 4.672899e-09 -6.513873e-09
1.137450e-08 4.992287e-09 -8.720701e-09
1.132255e-08 6.185514e-09 -7.688331e-09
1.117566e-08 5.222824e-09 -6.721959e-09
1.226631e-08 4.790959e-09 -8.279741e-09
1.128339e-08 6.666979e-09 -9.851206e-09
1.156609e-08 5.904463e-09 -1.058363e-08
1.118540e-08 6.140345e-09 -8.953980e-09
1.213212e-08 4.834314e-09 -9.158222e-09
1.190506e-08 5.578673e-09 -7.261049e-09
1.270213e-08 5.565970e-09 -8.057529e-09
1.338172e-08 5.001331e-09 -9.125744e-09
1.367940e-08 5.381290e-09 -1.051856e-08
1.207424e-08 7.115415e-09 -8.697935e-09
1.425991e-08 6.481986e-09 -1.001170e-08
1.370550e-08 6.187900e-09 -8.684981e-09
1.344474e-08 7.433611e-09 -9.018948e-09
2.045959e-09 1.572095e-09 -7.793200e-10
-4.364067e-09 -3.011018e-09 7.358568e-09
7.242172e-09 2.484983e-09 -6.473630e-09
7.287647e-09 3.264691e-09 -6.185039e-09
1.234457e-08 6.622274e-09 -1.123650e-08
2.200145e-09 1.144876e-09 5.917660e-10
-4.300558e-09 4.483427e-10 -8.532456e-10
8.024401e-09 3.239754e-09 -5.808160e-09
4.922723e-10 8.485116e-11 7.290080e-09
-3.459874e-10 4.947034e-10 -1.376283e-09
-3.196407e-09 -9.537261e-10 -2.563798e-09
7.789040e-09 2.927558e-09 -6.856112e-09
-4.481643e-09 1.745342e-09 -2.839346e-09
-5.670599e-09 1.270920e-09 1.499279e-09
-2.987046e-11 1.308490e-09 3.915530e-09
1.360598e-09 -9.287336e-10 4.973467e-09
1.037728e-08 4.605958e-09 -7.974957e-09
-4.527516e-09 -3.950155e-09 -2.596636e-09
-3.829871e-09 2.600989e-09 1.199290e-09
-3.149924e-09 -2.835333e-09 4.261841e-09
-5.999905e-09 2.557976e-09 1.322892e-09
1.110880e-08 4.568877e-09 -6.807519e-09
1.457498e-10 8.760502e-10 6.293205e-09
2.652977e-10 4.137729e-10 -2.230440e-09
4.455712e-10 1.672612e-09 3.961005e-09
-4.635492e-09 -1.912040e-09 4.970393e-09
-1.603044e-09 -2.503980e-09 4.512809e-09
-4.017211e-09 3.163669e-09 1.479902e-09
-2.260956e-09 -2.113531e-09 -3.579249e-09
1.316297e-08 6.651781e-09 -1.122517e-08
[...]
POINT_DATA 1605
VECTORS vector_force float
7.439119e+02 5.521750e+02 -1.583357e+02 
5.803894e+02 -7.041913e+02 2.403369e+02 
7.330673e+02 -4.011188e+02 -1.493102e+02 
9.042052e+02 -3.094999e+02 5.326497e+02 
-5.217305e+02 2.649143e+02 6.798423e+02 
1.104817e+03 1.307971e+03 4.075038e+02 
-1.704571e+02 6.252847e+02 -1.381929e+02 
1.029056e+03 1.481750e+03 6.816875e+02 
1.767507e+02 -4.367077e+02 1.705804e+02 
1.643055e+02 4.193014e+02 -5.912079e+01 
-2.536737e+02 3.229419e+02 -4.579870e+02 
4.790407e+02 2.437186e+02 -1.922743e+02 
1.261463e+03 5.052521e+02 3.983360e+01 
6.522578e+01 -3.323559e+02 -2.789814e+02 
4.538701e+01 2.600502e+02 -1.078346e+02 
3.952933e+02 3.061152e+02 -2.924643e+02 
-1.592652e+02 -1.665446e+01 -7.556546e+02 
5.889823e+02 3.340755e+02 -2.229638e+02 
2.660067e+02 2.223684e+02 -3.716217e+02 
4.789383e+02 -2.578598e+02 -1.034068e+03 
2.720620e+02 -1.255607e+02 -9.988480e+02 
-1.896263e+02 1.368168e+03 4.522054e+02 
5.289091e+02 -6.766109e+02 9.028598e+01 
4.463719e+02 -8.561775e+01 -1.513211e+03 
1.894244e+02 6.266251e+02 -5.316982e+02 
7.056329e+02 -6.883921e+02 -3.109304e+02 
3.119150e+02 6.302155e+02 2.400437e+02 
-2.897137e+01 -3.824103e+02 -6.574291e+02 
4.498907e+02 -1.725681e+02 -4.384120e+02 
-4.608093e+02 -2.816609e+01 1.206408e+02 
3.979605e+02 -1.381182e+03 -2.267749e+02 
-5.868346e+02 5.403594e+02 -3.348394e+02 
-6.433126e+02 7.539425e+01 4.508955e+02 
5.527619e+02 -6.080903e+02 5.451710e+01 
-4.233648e+02 -8.246570e+02 -1.335110e+02 
4.213837e+02 3.070222e+01 2.386254e+02 
-1.724634e+02 -3.176186e+02 -3.073482e+02 
8.317941e+02 2.901098e+02 -2.056739e+02 
-6.419140e+02 -4.095698e+02 -3.177729e+02 
-7.852382e+01 -5.431959e+02 4.483251e+01 
4.822538e+02 1.698443e+02 1.902487e+01 
-7.750014e+02 1.253872e+02 2.786005e+02 
3.079054e+02 -3.359613e+02 1.249964e+03 
2.072035e+02 6.001026e+02 8.519891e+02 
3.607266e+02 -1.400356e+02 1.331521e+02 
2.585866e+02 1.877891e+02 -4.827145e+01 
9.867872e+01 3.881771e+02 7.115309e+02 
4.459987e+02 3.317748e+02 6.433863e+02 
3.171843e+02 -4.416027e+02 1.586652e+03 
-3.525662e+02 4.636919e+02 4.483758e+02 
5.434172e+02 -6.654845e+02 1.576835e+02 
-5.393685e+02 1.192160e+02 2.055082e+02 
-5.985333e+02 -1.311659e+03 9.040909e+02 
-2.679748e+02 -1.880271e+02 -4.638259e+02 
3.747454e+01 4.065012e+02 -1.118360e+03 
1.582168e+02 -8.645467e+02 -2.450639e+02 
8.457905e+01 -3.982743e+02 -2.836370e+02 
-1.461348e+03 -1.799300e+03 -4.381079e+02 
2.844983e+02 -7.473224e+02 -2.952550e+02 
-5.435389e+01 -2.165276e+02 -1.889377e+02 
3.875628e+02 1.703171e+02 -7.759858e+01 
-3.107239e+02 8.209615e+01 -2.451218e+02 
-4.907879e+01 1.567574e+02 -4.931751e+02 
3.636216e+01 -7.004759e+02 1.030896e+03 
5.339520e+02 -8.451491e+01 3.574457e+02 
1.574118e+03 5.019141e+02 -3.274832e+01 
1.403317e+03 1.577938e+02 -2.827344e+02 
1.044973e+03 -4.380917e+02 -2.140640e+02 
3.231776e+02 2.256280e+02 8.080231e+02 
6.022655e+02 1.377161e+02 4.852383e+02 
5.773422e+02 3.340742e+02 1.309091e+03 
3.153732e+02 3.432924e+01 3.380480e+02 
9.950805e+02 1.170649e+03 1.206678e+03 
5.020622e+02 -2.593517e+02 -2.504049e+02 
-3.055351e+02 -1.261406e+02 -1.727694e+02 
6.193928e+02 -4.732285e+02 4.126965e+02 
5.802643e+02 4.149540e+02 5.098225e+02 
5.093236e+01 3.070824e+02 7.141962e+02 
2.261057e+02 -5.276812e+02 -3.326289e+02 
-4.726358e+02 -4.460323e+02 -2.713753e+01 
3.773446e+02 -3.834885e+02 2.674256e+02 
5.079421e+02 -4.218386e+02 3.368928e+02 
1.605801e+02 -1.114858e+03 -1.270861e+01 
7.729520e+02 9.637360e+02 -4.854991e+02 
7.878572e+02 -9.066859e+01 -5.315945e+02 
4.257363e+02 -6.791517e+02 -5.069197e+02 
1.978605e+02 7.082225e+02 7.468001e+02 
2.313466e+02 1.725259e+02 -7.288868e+01 
7.181743e+02 2.553455e+02 -2.895849e+02 
-1.769158e+02 2.534123e+02 1.568858e+02 
4.878149e+01 1.132454e+02 -4.231811e+02 
-7.885915e+02 -1.530364e+02 -5.530836e+02 
3.771977e+02 1.462453e+02 -3.708921e+02 
-2.473933e+02 1.671426e+02 2.250496e+02 
-2.046621e+02 -4.273656e+01 5.931775e+02 
-7.710179e+02 8.175777e+02 5.539982e+02 
-9.649640e+01 -4.099477e+01 -3.328369e+01 
1.335662e+02 -5.846103e+01 3.533606e+02 
4.302248e+02 7.902960e+01 3.601086e+02 
-9.314771e+02 5.997278e+02 -5.524272e+02 
2.756426e+02 3.291603e+02 -2.754956e+02 
-3.793487e+02 -8.832563e+01 1.514582e+02 
3.112338e+02 8.831585e+02 5.232963e+02 
-8.931876e+01 9.122905e+02 -5.220054e+02 
3.836154e+02 7.221904e+02 9.955878e+01 
-2.242218e+02 -5.852441e+02 6.877639e+02 
2.679525e+01 7.070190e+02 -5.861133e+02 
-4.003399e+01 -4.686278e+02 4.795536e+02 
2.278232e+02 -2.058835e+02 2.902846e+02 
5.962320e+02 1.154599e+02 3.906872e+00 
6.104340e+02 -6.835663e+02 7.393773e+00 
-4.507443e+02 3.697282e+01 -2.195634e+02 
7.110249e+02 2.791087e+01 1.416250e+02 
1.164704e+03 5.463580e+01 -4.882753e+02 
2.719548e+02 -1.016665e+02 -3.692774e+02 
2.563427e+02 8.187339e+02 1.359322e+02 
-6.048602e+02 -7.443719e+02 4.535918e+02 
1.094664e+02 -4.013890e+02 1.334223e+03 
-3.024952e+02 -1.913656e+02 3.940968e+02 
-8.632008e+02 -2.277639e+02 -1.438304e+02 
1.268983e+02 3.404528e+02 -6.602783e+01 
-3.985949e+02 3.283143e+02 3.979980e+02 
3.577425e+02 6.285527e+01 -2.120706e+02 
-7.381611e+01 1.134364e+02 -5.576735e+02 
9.042758e+02 -1.630363e+02 4.840192e+02 
4.639972e+02 4.052763e+02 -3.257809e+02 
7.272035e+02 -4.990328e+02 2.169812e+02 
-2.574836e+02 -1.562224e+02 -6.019389e+02 
-6.969263e+02 1.419899e+02 -5.214258e+02 
1.922427e+02 2.262426e+02 -5.977246e+02 
-6.887999e+02 3.361181e+02 -2.934608e+02 
2.172286e+02 1.788433e+02 -3.430807e+02 
-6.068669e+02 -1.871191e+01 -1.125872e+02 
4.169780e+02 -4.946810e+02 -2.724666e+02 
-8.686818e+02 -3.272765e+02 -5.922196e+02 
-5.937448e+01 1.968248e+02 -2.184123e+02 
-7.386089e+02 8.763816e+02 -1.338902e+01 
4.242150e+02 -3.064471e+02 -1.192491e+02 
-9.664092e+01 -3.070482e+02 9.918581e+02 
-9.107884e+01 -7.167057e+02 2.609850e+02 
-5.239836e+02 -5.279672e+02 2.351495e+02 
3.267482e+02 -3.172720e+01 -2.859615e+02 
-6.068740e+01 -7.736108e+02 1.585578e+02 
-3.827052e+02 1.889150e+02 -4.823099e+02 
7.586484e+02 -6.066492e+02 -2.274452e+02 
-6.851891e+02 -8.366864e+02 -6.016485e+02 
2.140325e+02 -2.497165e+02 -1.561332e+02 
-3.045163e+02 -9.947784e+02 9.629030e+02 
3.498947e+02 -3.123486e+02 7.830622e+02 
-6.701446e+02 2.162929e+02 -2.423862e+02 
-1.047428e+02 3.545519e+02 3.249234e+01 
-1.507268e+02 3.658494e+02 -2.286292e+02 
5.798536e+02 1.868381e+02 -2.849498e+02 
-5.635780e+02 -3.044119e+02 -2.581005e+02 
4.028055e+02 -2.188655e+02 9.224548e+02 
5.898146e+02 -1.485040e+03 4.638814e+01 
3.524767e+02 1.774239e+02 1.286974e+02 
-6.411370e+02 -5.097089e+02 -5.018490e+02 
-5.668426e+02 -1.237626e+01 -6.952651e+01 
-4.473324e+02 -2.090031e+02 2.118934e+02 
1.606283e+02 -7.584122e+02 8.992073e+02 
3.432493e+02 -5.800281e+02 -7.953923e+01 
-1.019874e+03 1.792981e+01 -2.600200e+02 
2.283811e+02 9.129167e+01 3.933081e+02 
1.320402e+01 -4.050956e+02 -6.727856e+02 
2.239731e+02 -3.941983e+02 1.318286e+02 
3.241233e+02 -5.143294e+01 -1.056086e+02 
-1.021657e+03 -6.379895e+02 9.453519e+02 
1.425841e+02 -8.342302e+01 1.591797e+02 
7.309926e+02 -9.014951e+02 3.325340e+02 
8.862847e+01 -1.318912e+03 -7.492263e+02 
-4.246217e+02 -1.073241e+03 1.387760e+03 
-6.772762e+02 -4.628554e+02 -8.219055e+01 
5.105569e+01 -4.933660e+02 -9.016781e+01 
-7.918965e+02 3.332632e+01 1.885068e+02 
6.078919e+01 -3.113193e+02 -1.395489e+02 
3.785880e+02 -4.996095e+02 -1.520218e+02 
1.499335e+02 -4.616194e+02 -2.958256e+02 
5.807774e+02 2.131605e+01 -5.927190e+02 
-4.125292e+02 -4.292097e+02 -4.113328e+02 
-1.374350e+03 -6.875984e+02 1.151909e+03 
-2.915096e+02 2.551342e+02 -6.514700e+02 
6.711817e+02 -8.231165e+02 1.511089e+02 
1.023921e+02 2.352335e+02 -9.223886e+02 
-4.766595e+02 -6.589391e+02 -5.033205e+02 
-1.629377e+02 2.902835e+02 -4.756093e+02 
9.587769e+02 -4.585536e+02 2.046818e+02 
1.847735e+02 -5.598758e+02 3.284686e+01 
-1.072386e+03 -6.219825e+02 -1.522374e+02 
-5.271677e+01 1.056035e+03 -8.401741e+02 
8.313629e+02 -3.747010e+02 -1.163679e+03 
7.337357e+02 -1.630362e+02 1.736405e+02 
-6.882490e+02 -8.743980e+01 -2.531075e+02 
7.711358e+02 -4.105469e+02 5.643866e+01 
7.997637e+02 -2.658898e+02 -8.934827e+01 
-1.447739e+02 -8.713906e+02 1.007237e+03 
-2.358392e+02 -8.768160e+01 1.665259e+02 
-1.279217e+02 2.498345e+02 -4.685414e+02 
-1.333083e+02 6.656228e+02 -8.736183e+00 
-1.411613e+03 -7.601281e+01 3.171559e+02 
1.409105e+01 6.855133e+02 7.011321e+02 
1.402338e+03 1.220912e+03 1.547578e+02 
-3.956948e+01 1.043370e+03 -7.377467e+02 
-2.039984e+02 -1.389586e+01 -5.978705e+02 
-4.512352e+02 -3.320186e+02 -4.184251e+02 
-1.415829e+01 8.650772e+02 3.010484e+02 
-1.170365e+03 -1.578481e+02 -1.174926e+01 
-1.220493e+03 -1.136605e+03 -1.308218e+02 
4.820182e+02 2.715272e+01 8.903166e+02 
1.195032e+03 -8.306722e+02 1.247368e+01 
2.941779e+02 8.998800e+02 1.365217e+03 
4.081166e+02 -9.324007e+02 1.973666e+02 
-4.200799e+02 -3.804778e+01 1.281389e+03 
0.000000e+00 0.000000e+00 0.000000e+00 
0.000000e+00 0.000000e+00 0.000000e+00 
0.000000e+00 0.000000e+00 0.000000e+00 
0.000000e+00 0.000000e+00 0.000000e+00 
0.000000e+00 0.000000e+00 0.000000e+00 
0.000000e+00 0.000000e+00 0.000000e+00 
0.000000e+00 0.000000e+00 0.000000e+00 
0.000000e+00 0.000000e+00 0.000000e+00 
0.000000e+00 0.000000e+00 0.000000e+00 
0.000000e+00 0.000000e+00 0.000000e+00 
0.000000e+00 0.000000e+00 0.000000e+00 
0.000000e+00 0.000000e+00 0.000000e+00 
0.000000e+00 0.000000e+00 0.000000e+00 
0.000000e+00 0.000000e+00 0.000000e+00 
0.000000e+00 0.000000e+00 0.000000e+00 
0.000000e+00 0.000000e+00 0.000000e+00 
0.000000e+00 0.000000e+00 0.000000e+00 
0.000000e+00 0.000000e+00 0.000000e+00 
0.000000e+00 0.000000e+00 0.000000e+00 
0.000000e+00 0.000000e+00 0.000000e+00 
0.000000e+00 0.000000e+00 0.000000e+00 
0.000000e+00 0.000000e+00 0.000000e+00 
0.000000e+00 0.000000e+00 0.000000e+00 
0.000000e+00 0.000000e+00 0.000000e+00 
0.000000e+00 0.000000e+00 0.000000e+00 
0.000000e+00 0.000000e+00 0.000000e+00 
0.000000e+00 0.000000e+00 0.000000e+00 
0.000000e+00 0.000000e+00 0.000000e+00 
0.000000e+00 0.000000e+00 0.000000e+00 
0.000000e+00 0.000000e+00 0.000000e+00 
0.000000e+00 0.000000e+00 0.000000e+00 
0.000000e+00 0.000000e+00 0.000000e+00 
0.000000e+00 0.000000e+00 0.000000e+00 
0.000000e+00 0.000000e+00 0.000000e+00 
0.000000e+00 0.000000e+00 0.000000e+00 
0.000000e+00 0.000000e+00 0.000000e+00 
0.000000e+00 0.000000e+00 0.000000e+00 
0.000000e+00 0.000000e+00 0.000000e+00 
0.000000e+00 0.000000e+00 0.000000e+00 
0.000000e+00 0.000000e+00 0.000000e+00 
0.000000e+00 0.000000e+00 0.000000e+00 
0.000000e+00 0.000000e+00 0.000000e+00 
0.000000e+00 0.000000e+00 0.000000e+00 
0.000000e+00 0.000000e+00 0.000000e+00 
0.000000e+00 0.000000e+00 0.000000e+00 
0.000000e+00 0.000000e+00 0.000000e+00 
0.000000e+00 0.000000e+00 0.000000e+00 
0.000000e+00 0.000000e+00 0.000000e+00 
0.000000e+00 0.000000e+00 0.000000e+00 
0.000000e+00 0.000000e+00 0.000000e+00 
0.000000e+00 0.000000e+00 0.000000e+00 
0.000000e+00 0.000000e+00 0.000000e+00 
0.000000e+00 0.000000e+00 0.000000e+00 
0.000000e+00 0.000000e+00 0.000000e+00 
0.000000e+00 0.000000e+00 0.000000e+00 
0.000000e+00 0.000000e+00 0.000000e+00 
0.000000e+00 0.000000e+00 0.000000e+00 
0.000000e+00 0.000000e+00 0.000000e+00 
0.000000e+00 0.000000e+00 0.000000e+00 
0.000000e+00 0.000000e+00 0.000000e+00 
0.000000e+00 0.000000e+00 0.000000e+00 
0.000000e+00 0.000000e+00 0.000000e+00 
0.000000e+00 0.000000e+00 0.000000e+00 
0.000000e+00 0.000000e+00 0.000000e+00 
0.000000e+00 0.000000e+00 0.000000e+00 
0.000000e+00 0.000000e+00 0.000000e+00 
0.000000e+00 0.000000e+00 0.000000e+00 
0.000000e+00 0.000000e+00 0.000000e+00 
0.000000e+00 0.000000e+00 0.000000e+00 
0.000000e+00 0.000000e+00 0.000000e+00 
0.000000e+00 0.000000e+00 0.000000e+00 
0.000000e+00 0.000000e+00 0.000000e+00 
0.000000e+00 0.000000e+00 0.000000e+00 
0.000000e+00 0.000000e+00 0.000000e+00 
0.000000e+00 0.000000e+00 0.000000e+00 
0.000000e+00 0.000000e+00 0.000000e+00 
0.000000e+00 0.000000e+00 0.000000e+00 
0.000000e+00 0.000000e+00 0.000000e+00 
0.000000e+00 0.000000e+00 0.000000e+00 
0.000000e+00 0.000000e+00 0.000000e+00 
0.000000e+00 0.000000e+00 0.000000e+00 
0.000000e+00 0.000000e+00 0.000000e+00 
0.000000e+00 0.000000e+00 0.000000e+00 
0.000000e+00 0.000000e+00 0.000000e+00 
0.000000e+00 0.000000e+00 0.000000e+00 
0.000000e+00 0.000000e+00 0.000000e+00 
0.000000e+00 0.000000e+00 0.000000e+00 
0.000000e+00 0.000000e+00 0.000000e+00 
0.000000e+00 0.000000e+00 0.000000e+00 
0.000000e+00 0.000000e+00 0.000000e+00 
0.000000e+00 0.000000e+00 0.000000e+00 
0.000000e+00 0.000000e+00 0.000000e+00 
0.000000e+00 0.000000e+00 0.000000e+00 
0.000000e+00 0.000000e+00 0.000000e+00 
0.000000e+00 0.000000e+00 0.000000e+00 
0.000000e+00 0.000000e+00 0.000000e+00 
0.000000e+00 0.000000e+00 0.000000e+00 
0.000000e+00 0.000000e+00 0.000000e+00 
0.000000e+00 0.000000e+00 0.000000e+00 
0.000000e+00 0.000000e+00 0.000000e+00 
0.000000e+00 0.000000e+00 0.000000e+00 
0.000000e+00 0.000000e+00 0.000000e+00 
0.000000e+00 0.000000e+00 0.000000e+00 
0.000000e+00 0.000000e+00 0.000000e+00 
0.000000e+00 0.000000e+00 0.000000e+00 
0.000000e+00 0.000000e+00 0.000000e+00 
0.000000e+00 0.000000e+00 0.000000e+00 
0.000000e+00 0.000000e+00 0.000000e+00 
0.000000e+00 0.000000e+00 0.000000e+00 
0.000000e+00 0.000000e+00 0.000000e+00 
0.000000e+00 0.000000e+00 0.000000e+00 
0.000000e+00 0.000000e+00 0.000000e+00 
0.000000e+00 0.000000e+00 0.000000e+00 
0.000000e+00 0.000000e+00 0.000000e+00 
0.000000e+00 0.000000e+00 0.000000e+00 
0.000000e+00 0.000000e+00 0.000000e+00 
0.000000e+00 0.000000e+00 0.000000e+00 
0.000000e+00 0.000000e+00 0.000000e+00 
0.000000e+00 0.000000e+00 0.000000e+00 
0.000000e+00 0.000000e+00 0.000000e+00 
0.000000e+00 0.000000e+00 0.000000e+00 
0.000000e+00 0.000000e+00 0.000000e+00 
0.000000e+00 0.000000e+00 0.000000e+00 
0.000000e+00 0.000000e+00 0.000000e+00 
0.000000e+00 0.000000e+00 0.000000e+00 
0.000000e+00 0.000000e+00 0.000000e+00 
0.000000e+00 0.000000e+00 0.000000e+00 
0.000000e+00 0.000000e+00 0.000000e+00 
0.000000e+00 0.000000e+00 0.000000e+00 
0.000000e+00 0.000000e+00 0.000000e+00 
0.000000e+00 0.000000e+00 0.000000e+00 
0.000000e+00 0.000000e+00 0.000000e+00 
0.000000e+00 0.000000e+00 0.000000e+00 
0.000000e+00 0.000000e+00 0.000000e+00 
0.000000e+00 0.000000e+00 0.000000e+00 
0.000000e+00 0.000000e+00 0.000000e+00 
0.000000e+00 0.000000e+00 0.000000e+00 
0.000000e+00 0.000000e+00 0.000000e+00 
0.000000e+00 0.000000e+00 0.000000e+00 
0.000000e+00 0.000000e+00 0.000000e+00 
0.000000e+00 0.000000e+00 0.000000e+00 
0.000000e+00 0.000000e+00 0.000000e+00 
0.000000e+00 0.000000e+00 0.000000e+00 
0.000000e+00 0.000000e+00 0.000000e+00 
0.000000e+00 0.000000e+00 0.000000e+00 
0.000000e+00 0.000000e+00 0.000000e+00 
0.000000e+00 0.000000e+00 0.000000e+00 
0.000000e+00 0.000000e+00 0.000000e+00 
0.000000e+00 0.000000e+00 0.000000e+00 
0.000000e+00 0.000000e+00 0.000000e+00 
0.000000e+00 0.000000e+00 0.000000e+00 
0.000000e+00 0.000000e+00 0.000000e+00 
0.000000e+00 0.000000e+00 0.000000e+00 
0.000000e+00 0.000000e+00 0.000000e+00 
0.000000e+00 0.000000e+00 0.000000e+00 
0.000000e+00 0.000000e+00 0.000000e+00 
0.000000e+00 0.000000e+00 0.000000e+00 
0.000000e+00 0.000000e+00 0.000000e+00 
0.000000e+00 0.000000e+00 0.000000e+00 
0.000000e+00 0.000000e+00 0.000000e+00 
0.000000e+00 0.000000e+00 0.000000e+00 
0.000000e+00 0.000000e+00 0.000000e+00 
0.000000e+00 0.000000e+00 0.000000e+00 
0.000000e+00 0.000000e+00 0.000000e+00 
0.000000e+00 0.000000e+00 0.000000e+00 
0.000000e+00 0.000000e+00 0.000000e+00 
0.000000e+00 0.000000e+00 0.000000e+00 
0.000000e+00 0.000000e+00 0.000000e+00 
0.000000e+00 0.000000e+00 0.000000e+00 
0.000000e+00 0.000000e+00 0.000000e+00 
0.000000e+00 0.000000e+00 0.000000e+00 
0.000000e+00 0.000000e+00 0.000000e+00 
0.000000e+00 0.000000e+00 0.000000e+00 
0.000000e+00 0.000000e+00 0.000000e+00 
0.000000e+00 0.000000e+00 0.000000e+00 
0.000000e+00 0.000000e+00 0.000000e+00 
0.000000e+00 0.000000e+00 0.000000e+00 
0.000000e+00 0.000000e+00 0.000000e+00 
0.000000e+00 0.000000e+00 0.000000e+00 
0.000000e+00 0.000000e+00 0.000000e+00 
0.000000e+00 0.000000e+00 0.000000e+00 
0.000000e+00 0.000000e+00 0.000000e+00 
0.000000e+00 0.000000e+00 0.000000e+00 
0.000000e+00 0.000000e+00 0.000000e+00 
0.000000e+00 0.000000e+00 0.000000e+00 
0.000000e+00 0.000000e+00 0.000000e+00 
0.000000e+00 0.000000e+00 0.000000e+00 
0.000000e+00 0.000000e+00 0.000000e+00 
0.000000e+00 0.000000e+00 0.000000e+00 
0.000000e+00 0.000000e+00 0.000000e+00 
0.000000e+00 0.000000e+00 0.000000e+00 
0.000000e+00 0.000000e+00 0.000000e+00 
0.000000e+00 0.000000e+00 0.000000e+00 
0.000000e+00 0.000000e+00 0.000000e+00 
0.000000e+00 0.000000e+00 0.000000e+00 
0.000000e+00 0.000000e+00 0.000000e+00 
0.000000e+00 0.000000e+00 0.000000e+00 
0.000000e+00 0.000000e+00 0.000000e+00 
0.000000e+00 0.000000e+00 0.000000e+00 
0.000000e+00 0.000000e+00 0.000000e+00 
0.000000e+00 0.000000e+00 0.000000e+00 
0.000000e+00 0.000000e+00 0.000000e+00 
0.000000e+00 0.000000e+00 0.000000e+00 
0.000000e+00 0.000000e+00 0.000000e+00 
0.000000e+00 0.000000e+00 0.000000e+00 
0.000000e+00 0.000000e+00 0.000000e+00 
0.000000e+00 0.000000e+00 0.000000e+00 
0.000000e+00 0.000000e+00 0.000000e+00 
0.000000e+00 0.000000e+00 0.000000e+00 
0.000000e+00 0.000000e+00 0.000000e+00 
0.000000e+00 0.000000e+00 0.000000e+00 
0.000000e+00 0.000000e+00 0.000000e+00 
0.000000e+00 0.000000e+00 0.000000e+00 
0.000000e+00 0.000000e+00 0.000000e+00 
0.000000e+00 0.000000e+00 0.000000e+00 
0.000000e+00 0.000000e+00 0.000000e+00 
0.000000e+00 0.000000e+00 0.000000e+00 
0.000000e+00 0.000000e+00 0.000000e+00 
0.000000e+00 0.000000e+00 0.000000e+00 
0.000000e+00 0.000000e+00 0.000000e+00 
0.000000e+00 0.000000e+00 0.000000e+00 
0.000000e+00 0.000000e+00 0.000000e+00 
0.000000e+00 0.000000e+00 0.000000e+00 
0.000000e+00 0.000000e+00 0.000000e+00 
0.000000e+00 0.000000e+00 0.000000e+00 
0.000000e+00 0.000000e+00 0.000000e+00 
0.000000e+00 0.000000e+00 0.000000e+00 
0.000000e+00 0.000000e+00 0.000000e+00 
0.000000e+00 0.000000e+00 0.000000e+00 
0.000000e+00 0.000000e+00 0.000000e+00 
0.000000e+00 0.000000e+00 0.000000e+00 
0.000000e+00 0.000000e+00 0.000000e+00 
0.000000e+00 0.000000e+00 0.000000e+00 
0.000000e+00 0.000000e+00 0.000000e+00 
0.000000e+00 0.000000e+00 0.000000e+00 
0.000000e+00 0.000000e+00 0.000000e+00 
0.000000e+00 0.000000e+00 0.000000e+00 
0.000000e+00 0.000000e+00 0.000000e+00 
0.000000e+00 0.000000e+00 0.000000e+00 
0.000000e+00 0.000000e+00 0.000000e+00 
0.000000e+00 0.000000e+00 0.000000e+00 
0.000000e+00 0.000000e+00 0.000000e+00 
0.000000e+00 0.000000e+00 0.000000e+00 
0.000000e+00 0.000000e+00 0.000000e+00 
0.000000e+00 0.000000e+00 0.000000e+00 
0.000000e+00 0.000000e+00 0.000000e+00 
0.000000e+00 0.000000e+00 0.000000e+00 
0.000000e+00 0.000000e+00 0.000000e+00 
0.000000e+00 0.000000e+00 0.000000e+00 
0.000000e+00 0.000000e+00 0.000000e+00 
0.000000e+00 0.000000e+00 0.000000e+00 
0.000000e+00 0.000000e+00 0.000000e+00 
0.000000e+00 0.000000e+00 0.000000e+00 
0.000000e+00 0.000000e+00 0.000000e+00 
0.000000e+00 0.000000e+00 0.000000e+00 
0.000000e+00 0.000000e+00 0.000000e+00 
0.000000e+00 0.000000e+00 0.000000e+00 
0.000000e+00 0.000000e+00 0.000000e+00 
0.000000e+00 0.000000e+00 0.000000e+00 
0.000000e+00 0.000000e+00 0.000000e+00 
0.000000e+00 0.000000e+00 0.000000e+00 
0.000000e+00 0.000000e+00 0.000000e+00 
0.000000e+00 0.000000e+00 0.000000e+00 
0.000000e+00 0.000000e+00 0.000000e+00 
0.000000e+00 0.000000e+00 0.000000e+00 
0.000000e+00 0.000000e+00 0.000000e+00 
0.000000e+00 0.000000e+00 0.000000e+00 
0.000000e+00 0.000000e+00 0.000000e+00 
0.000000e+00 0.000000e+00 0.000000e+00 
0.000000e+00 0.000000e+00 0.000000e+00 
0.000000e+00 0.000000e+00 0.000000e+00 
0.000000e+00 0.000000e+00 0.000000e+00 
0.000000e+00 0.000000e+00 0.000000e+00 
0.000000e+00 0.000000e+00 0.000000e+00 
0.000000e+00 0.000000e+00 0.000000e+00 
0.000000e+00 0.000000e+00 0.000000e+00 
0.000000e+00 0.000000e+00 0.000000e+00 