# vtk DataFile Version 3.1
*description-name of input file* step:201 
ASCII
DATASET UNSTRUCTURED_GRID
POINTS 1605 FLOAT
-7.061836e-09 -5.773549e-09 3.224981e-10
-7.563661e-09 -4.661131e-09 -6.662971e-10
-6.159782e-09 -5.237454e-09 -7.408516e-10
-7.716324e-09 -4.331360e-09 1.944912e-09
-5.366751e-09 -5.992502e-09 -1.779405e-10
1.201059e-08 7.154522e-09 -1.064401e-08
1.364885e-08 7.240347e-09 -1.072692e-08
1.262985e-08 5.962063e-09 -1.177865e-08
-5.913768e-09 -6.032987e-09 9.838638e-10
-6.167506e-09 -3.084304e-09 7.475111e-10
-4.255366e-09 -4.669933e-09 -1.142832e-09
-6.336022e-09 -2.973635e-09 -6.740999e-10
-5.641907e-09 -5.187757e-09 2.452243e-09
-5.983050e-09 -3.631977e-09 1.776499e-09
-5.102388e-09 -3.856871e-09 -1.538498e-09
-7.321540e-09 -4.016815e-09 3.264735e-09
-3.255002e-09 -5.470615e-09 3.501724e-10
-6.913223e-09 -1.457310e-09 1.048186e-10
-5.469703e-09 -1.707407e-09 -1.096141e-09
-4.006288e-09 -4.000712e-09 -3.713288e-09
-5.133476e-09 -2.754169e-09 -2.746960e-09
-4.203194e-09 -2.150479e-09 -3.907628e-09
-6.261226e-09 -2.611488e-09 2.480510e-09
-6.196682e-09 5.551703e-11 -2.392238e-09
-6.475617e-09 -6.042774e-11 -8.944838e-10
-3.725251e-09 -4.659972e-09 1.896712e-09
-7.190622e-09 -1.600516e-09 1.519917e-09
-5.915048e-09 -3.708444e-09 4.196746e-09
-4.200166e-09 -2.050774e-09 -4.310291e-10
-7.510435e-09 -1.939458e-09 3.501768e-09
-2.426362e-09 -4.451946e-09 -2.367559e-09
-2.750900e-09 -2.673960e-09 -3.629888e-09
-2.140693e-09 -3.932760e-09 -3.452504e-09
-3.447157e-09 -3.458134e-09 -5.736161e-10
-5.972516e-09 -2.425076e-09 4.293295e-09
-4.498472e-09 -9.098579e-10 -2.480190e-09
-6.310755e-09 -5.036359e-10 2.021206e-09
-4.927432e-09 -4.569859e-10 2.835686e-10
-3.151540e-09 -1.833075e-09 -2.117965e-09
-4.062870e-09 -4.005303e-09 3.809820e-09
-4.989973e-09 4.376084e-10 -8.350861e-10
-3.871700e-09 8.428320e-10 -4.903526e-09
-3.883374e-09 3.082176e-10 -2.876453e-09
-4.847863e-09 1.113997e-09 -3.315588e-09
-4.083838e-09 -2.662654e-09 2.048867e-09
-1.586815e-09 -3.148961e-09 -7.104227e-10
-4.620787e-09 2.594380e-09 -3.885762e-09
-2.965820e-09 -1.521361e-09 -3.591388e-09
-3.281966e-09 -4.750524e-11 -3.094028e-09
-1.690050e-09 -1.528117e-09 -3.446403e-09
-3.562975e-09 5.601451e-10 -9.160592e-10
-2.957310e-09 -2.013273e-09 5.323901e-11
-3.054189e-09 2.039632e-10 -4.488359e-09
-1.778569e-09 -2.141784e-09 -1.925281e-09
-3.950995e-09 -3.903529e-10 8.120717e-09
-2.201942e-09 -1.736654e-09 7.542805e-09
-1.809042e-09 3.216694e-10 7.467814e-09
-1.583937e-09 8.758158e-10 -4.067444e-09
-5.634886e-09 -2.950729e-09 5.971501e-09
-4.151493e-09 2.377762e-09 -2.412773e-09
-3.447078e-09 -2.724656e-09 3.713470e-09
-4.623658e-09 -6.574410e-10 2.471760e-09
-3.934833e-09 -1.599876e-09 1.143418e-09
-5.427647e-09 2.284937e-09 -3.529714e-10
-4.754474e-09 7.609760e-10 1.323244e-09
-6.525031e-09 1.698965e-09 1.666554e-09
-4.535540e-09 -4.364017e-09 5.788405e-09
-4.668643e-09 -3.640405e-09 6.854493e-09
-6.004402e-09 -1.708691e-09 6.688103e-09
-1.970448e-09 1.771732e-09 2.126050e-09
1.033247e-10 2.383009e-09 3.616195e-09
-1.035354e-09 1.785562e-09 9.288153e-10
-4.352674e-09 8.544005e-10 -1.271909e-09
-2.999070e-09 -4.489200e-09 5.401860e-09
9.956590e-10 1.944941e-10 3.690696e-09
8.358063e-10 1.141386e-09 4.274308e-09
-5.070563e-12 7.295207e-10 5.453956e-09
-5.500397e-09 3.384700e-09 1.009073e-09
-4.714289e-09 -1.468636e-09 5.496062e-09
-1.197292e-09 1.016073e-10 -1.509056e-09
-4.460242e-09 -2.223831e-09 4.501598e-09
-3.450863e-09 2.391591e-11 4.871167e-10
-2.324280e-09 -4.358418e-10 -4.725597e-11
-5.843962e-09 2.559833e-09 3.862597e-09
-2.347106e-09 -5.176462e-09 3.758169e-09
-3.005951e-09 2.653632e-09 -3.445876e-09
-2.136661e-09 -3.800842e-09 2.587051e-09
-5.866503e-09 -4.529234e-10 5.548481e-09
-2.598895e-09 1.830900e-09 -2.407207e-09
-4.337551e-09 -1.213958e-10 4.841215e-09
-2.785554e-09 -2.874555e-09 4.826708e-09
-5.658401e-09 -7.468732e-10 4.115576e-09
-3.327356e-09 -9.102240e-10 4.188820e-09
-8.127466e-10 -1.413294e-09 4.256083e-12
-4.487133e-09 3.546629e-09 2.359368e-09
-3.132723e-09 2.834260e-09 -9.049756e-10
-1.137370e-10 -1.528948e-09 -3.423856e-09
3.053263e-10 -2.809750e-09 -2.648005e-09
-4.114248e-09 -2.316924e-09 7.954058e-09
-5.407850e-09 -1.341909e-09 7.959324e-09
-5.256747e-09 3.370176e-10 7.818226e-09
8.598877e-10 2.138628e-09 2.858205e-09
-3.373678e-09 1.522366e-09 8.797627e-10
-3.560112e-09 2.763452e-09 5.708075e-10
-6.384631e-09 1.266689e-09 5.142993e-09
-4.717607e-09 3.234684e-11 3.725492e-09
-3.659377e-09 -2.460712e-09 6.196048e-09
-1.186468e-11 -1.251002e-10 -3.208947e-09
-1.302314e-09 -2.787987e-09 3.532859e-09
-4.847747e-09 1.374789e-09 6.688660e-09
-3.639020e-09 8.552680e-10 3.313955e-09
-4.337993e-09 2.063767e-09 5.423047e-09
-4.318842e-09 1.754274e-09 3.089972e-09
-3.395848e-10 -4.015759e-09 2.630669e-09
8.459168e-10 -3.830381e-09 4.212742e-09
-4.056902e-09 2.469489e-09 1.795015e-09
3.058885e-10 -2.016520e-09 -8.160888e-10
-4.175199e-09 3.000570e-09 4.031124e-09
1.295225e-09 -1.035823e-09 -2.769213e-09
-6.765408e-10 -4.086610e-09 6.233300e-09
-7.188551e-10 -6.319925e-10 1.094103e-09
-2.212653e-09 -3.359679e-09 6.537701e-09
-1.949545e-09 -2.229115e-09 5.442853e-09
-1.535519e-09 -2.937167e-10 2.789808e-09
-1.480608e-09 -1.733435e-09 4.351654e-09
-2.517340e-09 1.474045e-09 3.770144e-09
1.460435e-09 -1.114569e-09 -1.325023e-09
5.323224e-10 8.880072e-10 -1.263650e-09
1.334093e-09 -4.478164e-10 5.847582e-09
-3.263324e-09 1.073835e-09 5.914555e-09
8.503174e-10 7.426243e-10 -3.045582e-09
7.834129e-10 -4.547578e-09 2.875310e-09
-8.839918e-10 -6.205085e-10 4.037364e-09
9.279344e-10 -1.226798e-09 -1.662129e-10
4.365827e-10 -3.895605e-09 5.419866e-09
-3.164899e-09 8.722885e-10 7.246068e-09
-2.552125e-09 2.073621e-09 5.379044e-09
-1.276636e-09 -1.738955e-09 6.495235e-09
1.766753e-09 -4.741085e-09 3.670000e-09
2.149245e-09 -3.741805e-09 2.474482e-09
-2.053222e-10 -1.551447e-09 2.638232e-09
-2.044335e-10 -2.690750e-09 6.947904e-09
1.433859e-09 -1.686610e-09 1.761466e-09
2.096728e-09 -1.203275e-10 -2.271667e-09
-8.788423e-10 1.625086e-09 3.587566e-09
-5.984619e-10 -1.317506e-09 7.879675e-09
1.595568e-09 2.792827e-10 -2.042413e-10
2.361012e-09 -3.491373e-09 4.828724e-09
2.986280e-09 -4.194104e-09 3.775421e-09
1.888323e-09 1.498944e-09 -1.350941e-09
5.476003e-10 -2.202869e-09 6.223268e-09
-1.853499e-09 6.922990e-10 5.206693e-09
2.872637e-09 -4.329552e-10 6.635959e-10
2.724942e-09 3.366263e-10 -3.691670e-09
1.615145e-09 -2.598284e-09 4.976071e-09
3.599280e-09 -3.036088e-09 2.649230e-09
3.287889e-09 7.383254e-10 -2.181230e-09
2.798359e-09 2.582848e-09 -2.638145e-09
2.982928e-09 2.089904e-09 -4.163451e-09
3.822947e-09 9.045286e-10 -3.925369e-09
4.327509e-09 1.308760e-09 -5.127295e-09
1.292786e-09 -1.423757e-09 4.180923e-09
6.150040e-10 -8.037721e-10 7.436062e-09
2.697461e-09 -5.408674e-10 2.081498e-09
1.195689e-09 1.387752e-09 5.578799e-10
2.195069e-09 1.585083e-09 -3.063066e-10
4.645454e-09 1.372380e-09 -3.376416e-09
4.075094e-10 1.095443e-09 7.222997e-09
1.361575e-09 9.776485e-10 2.003489e-09
2.963516e-09 -2.343146e-09 3.616341e-09
2.172597e-09 -2.983195e-10 3.407734e-09
3.559508e-09 6.999209e-11 1.783757e-09
4.548849e-09 2.459249e-09 -3.514949e-09
3.202312e-09 8.472601e-10 -9.239045e-10
3.325294e-09 1.919149e-09 -1.703815e-09
4.847738e-09 2.347570e-09 -4.959397e-09
3.235389e-09 7.965197e-10 6.210148e-10
5.436947e-09 1.674469e-09 -5.743562e-09
5.324302e-09 1.488735e-09 -4.536377e-09
3.448077e-09 -1.363580e-11 -2.826354e-10
3.056076e-09 9.210348e-10 2.591888e-09
6.523369e-09 1.468098e-09 -5.781763e-09
5.764716e-09 2.857605e-09 -4.062963e-09
7.100220e-09 2.990312e-09 -6.497971e-09
6.871197e-09 2.335534e-09 -4.638289e-09
7.377058e-09 2.154696e-09 -6.349902e-09
6.246145e-09 3.659511e-09 -4.975659e-09
7.559174e-09 3.745046e-09 -5.703189e-09
8.580248e-09 2.835436e-09 -5.838695e-09
8.437558e-09 2.955152e-09 -7.030191e-09
8.381932e-09 4.047999e-09 -6.972228e-09
9.459672e-09 3.227208e-09 -6.926724e-09
1.043417e-08 4.275374e-09 -7.894988e-09
1.032600e-08 4.943905e-09 -8.081293e-09
9.565179e-09 3.794669e-09 -6.168655e-09
1.104504e-08 4.000131e-09 -6.863535e-09
1.015230e-08 4.676023e-09 -6.549460e-09
1.137300e-08 5.021631e-09 -8.738894e-09
1.134911e-08 6.178380e-09 -7.707583e-09
1.116437e-08 5.316518e-09 -6.708088e-09
1.229234e-08 4.717538e-09 -8.314716e-09
1.123846e-08 6.626440e-09 -9.848921e-09
1.161913e-08 5.855638e-09 -1.067017e-08
1.120856e-08 6.100393e-09 -8.970548e-09
1.208497e-08 4.918782e-09 -9.161268e-09
1.204633e-08 5.611990e-09 -7.258988e-09
1.272604e-08 5.565430e-09 -8.055592e-09
1.339903e-08 5.009736e-09 -9.062840e-09
1.365694e-08 5.354945e-09 -1.044235e-08
1.206776e-08 7.157495e-09 -8.731825e-09
1.417728e-08 6.460763e-09 -9.915381e-09
1.376867e-08 6.202025e-09 -8.569327e-09
1.335817e-08 7.450724e-09 -9.001529e-09
2.041696e-09 1.542014e-09 -8.286240e-10
-4.391446e-09 -2.978665e-09 7.404275e-09
7.238639e-09 2.572504e-09 -6.423936e-09
7.329697e-09 3.367679e-09 -6.100580e-09
1.232022e-08 6.558292e-09 -1.121133e-08
2.215539e-09 1.092136e-09 5.894473e-10
-4.276474e-09 4.988767e-10 -8.755727e-10
8.069711e-09 3.290241e-09 -5.770942e-09
5.112567e-10 1.458354e-10 7.329529e-09
-3.324848e-10 4.948073e-10 -1.386353e-09
-3.216753e-09 -9.402903e-10 -2.605997e-09
7.768889e-09 2.972732e-09 -6.764081e-09
-4.499678e-09 1.745879e-09 -2.864180e-09
-5.639753e-09 1.229971e-09 1.494899e-09
-2.151801e-11 1.383236e-09 3.930937e-09
1.313440e-09 -9.357866e-10 5.014253e-09
1.038008e-08 4.609640e-09 -7.988141e-09
-4.554338e-09 -3.928792e-09 -2.625893e-09
-3.808507e-09 2.616471e-09 1.182911e-09
-3.116316e-09 -2.799605e-09 4.270089e-09
-6.012714e-09 2.541833e-09 1.337814e-09
1.110471e-08 4.658325e-09 -6.785812e-09
2.012194e-10 9.124818e-10 6.338476e-09
2.602289e-10 3.814535e-10 -2.236298e-09
4.695655e-10 1.762198e-09 3.945252e-09
-4.587265e-09 -1.846234e-09 4.998830e-09
-1.625930e-09 -2.508551e-09 4.487856e-09
-4.023622e-09 3.155041e-09 1.465088e-09
-2.220475e-09 -2.101038e-09 -3.538145e-09
1.313935e-08 6.601205e-09 -1.125279e-08
[...]
POINT_DATA 1605
VECTORS vector_force float
1.023828e+03 -3.053853e+02 -2.766631e+02 
8.351749e+02 1.144617e+03 -2.562006e+02 
-1.424672e+02 -6.936388e+01 -1.658763e+02 
-2.836669e+02 -1.128657e+03 -6.490694e+02 
-2.974282e+02 5.634315e+02 4.512392e+02 
-1.175140e+03 3.176494e+01 4.862128e+02 
-6.101896e+01 5.054820e+02 7.222144e+02 
6.460183e+02 1.116998e+03 8.158214e+02 
-3.986524e+02 2.706246e+02 4.605225e+02 
3.037054e+02 -2.831168e+02 1.601797e+02 
4.692093e+02 3.959895e+02 1.187621e+02 
-4.692188e+02 4.924932e+02 3.021902e+02 
7.659799e+00 -2.820640e+01 -9.895758e+02 
-2.502930e+02 5.876707e+02 -3.631318e+02 
-5.432730e+02 -9.231703e+01 5.115719e+02 
-3.783091e+02 -5.295306e+02 1.352967e+01 
-3.036520e+02 6.891899e+02 -2.911941e+02 
-3.211988e+01 -8.825385e+02 2.393711e+02 
1.251491e+02 2.671161e+02 6.660302e+02 
-2.551825e+02 9.898230e+02 -5.015080e+02 
2.556075e+01 1.109390e+03 4.961462e+02 
-6.982413e+02 1.049299e+02 -4.013722e+02 
-8.540138e+02 -6.192748e+01 4.959076e+02 
2.424332e+02 -1.319224e+02 -2.245999e+02 
-9.366719e+02 1.017827e+02 -2.513617e+02 
-1.872527e+02 -5.880156e+02 5.432134e+01 
7.426242e+01 -7.401613e+02 2.130955e+02 
-7.104250e+02 4.650438e+02 1.406268e+02 
2.515764e+02 6.215773e+02 -1.147481e+02 
1.916981e+02 3.679070e+02 -9.533428e+02 
3.618240e+02 -1.501777e+02 -1.186835e+03 
-5.763263e+02 7.753907e+02 -2.149554e+02 
-5.903915e+00 1.359025e+03 2.186867e+01 
-2.463634e+02 4.118746e+01 9.538654e+01 
-3.955820e+02 8.583011e+02 -6.323114e+02 
4.597292e+02 -5.665198e+02 -1.715417e+02 
5.024671e+02 4.693184e+02 -6.467519e+02 
-7.500677e+02 -6.007374e+02 2.071280e+02 
-6.640943e+02 1.176694e+02 -3.494531e+02 
-8.681286e+02 -5.532537e+02 1.568093e+02 
-3.460407e+02 8.142883e+01 1.214091e+02 
-4.728767e+01 5.425009e+02 -3.169929e+02 
2.947455e+02 5.368139e+02 -5.375885e+02 
8.500364e+02 -7.205815e+02 1.733612e+00 
9.406862e+01 -4.645192e+01 1.320575e+02 
-5.690184e+02 -8.777230e+02 7.956260e+02 
-4.062217e+02 -4.766809e+02 -5.366044e+02 
-1.733136e+03 -7.976960e+02 -1.361488e+02 
-4.348452e+02 -5.292431e+02 -9.791586e+01 
3.785892e+02 -4.546255e+02 -2.702792e+01 
-1.060434e+03 6.927090e+02 -4.116404e+02 
1.306605e+02 4.303926e+02 -2.119123e+01 
-6.395515e+02 2.277768e+02 -9.432526e+02 
4.122693e+01 -4.691182e+02 -1.807812e+02 
-4.725821e+01 -3.319879e+02 -1.220551e+02 
1.934109e+02 -4.993807e+02 -9.977950e+02 
-4.446827e+02 5.354949e+00 5.496715e+02 
-3.228306e+02 3.387618e+02 -7.402683e+02 
-3.341594e+02 4.701385e+01 3.962162e+02 
-5.870591e+02 -1.314671e+02 -1.836746e+02 
-6.152664e+02 3.881234e+02 -1.059903e+02 
3.019516e+02 1.631694e+02 8.210054e+01 
3.295335e+02 6.677773e+02 2.018215e+02 
5.598505e+01 2.963113e+02 6.625334e+02 
-6.539494e+02 -8.013825e+02 2.497385e+02 
-3.524566e+02 2.484861e+02 7.913465e+02 
1.169470e+02 -1.745061e+02 -6.083516e+02 
5.017811e+02 1.039492e+02 -6.021654e+02 
-4.146510e+02 -9.851461e+02 -2.626818e+02 
4.251306e+02 5.566720e+02 9.236443e+02 
-3.992205e+02 3.824560e+02 -2.075323e+02 
5.140205e+01 -1.299449e+02 -8.304289e+01 
-1.635014e+03 2.559965e+02 -1.388255e+02 
1.993749e+02 -3.700126e+02 -1.805751e+02 
-1.613498e+02 -2.301288e+02 3.197144e+02 
-2.897015e+02 -2.566302e+02 1.274073e+02 
3.322078e+02 -5.348122e+02 4.077543e+02 
-1.025606e+03 -9.828263e+02 4.440789e+02 
9.985119e+01 7.446094e+02 -1.917490e+02 
-1.327671e+02 4.245627e+02 6.035328e+02 
-8.129672e+02 3.643701e+02 8.222513e+02 
-6.467073e+02 1.449105e+03 1.805565e+02 
-9.419184e+01 4.565571e+02 -1.898597e+02 
9.113860e+02 3.118238e+02 -4.068258e+02 
-1.019968e+03 -1.831600e+02 -8.499119e+02 
3.915984e+02 2.608670e+02 -1.618678e+03 
-4.388130e+02 -1.685123e+02 -1.854583e+02 
-6.450454e+02 4.531566e+02 1.802663e+02 
-7.505057e+01 9.548885e+02 1.202136e+02 
2.111641e+02 3.346308e+02 1.052288e+02 
-6.729184e+01 -1.057056e+02 1.832241e+02 
-2.473684e+01 4.398951e+02 8.880837e+02 
2.719519e+01 6.932288e+00 1.813464e+02 
-2.210979e+02 -9.580059e+02 1.883052e+02 
5.425580e+02 -1.729877e+02 -1.045768e+03 
3.414335e+02 -2.775850e+02 -1.070216e+02 
3.214913e+01 -6.820546e+02 -3.378123e+02 
6.920862e+01 -9.013044e+02 -2.743537e+02 
-3.653472e+02 -7.903095e+01 -8.762309e+02 
-1.082710e+03 -5.586237e+02 4.192198e+01 
-9.496313e+02 1.106739e+03 1.342971e+02 
1.187857e+02 -8.087350e+02 3.188659e+02 
-7.096571e+02 -1.249006e+03 1.244562e+02 
5.458590e+02 -8.994398e+02 1.963488e+02 
2.525011e+02 7.059429e+02 -1.298207e+02 
-3.903507e+02 -4.965815e+02 1.015104e+01 
1.893824e+02 -1.065457e+02 -3.762442e+02 
3.483627e+02 -1.422324e+02 5.704780e+02 
8.021598e+01 -4.379713e+02 9.287425e+02 
4.436229e+02 4.128799e+02 1.910021e+02 
3.483488e+01 -1.413237e+02 -4.494663e+02 
6.177672e+02 -2.241625e+02 -7.804582e+02 
-2.514124e+01 2.144675e+01 -2.787180e+02 
3.158213e+02 2.728942e+02 -1.223284e+02 
-7.308151e+02 -6.173958e+02 1.775107e+02 
2.145191e+02 -9.565406e+02 1.836122e+02 
-2.727467e+02 -3.285709e+02 -2.515977e+02 
-4.705883e+02 4.191143e+02 -1.351124e+02 
-1.217450e+02 -8.974535e+02 7.720378e+02 
-3.539227e+02 -5.861844e+02 4.147837e+02 
-9.032025e+02 -7.116656e+01 -6.367802e+02 
2.825656e+02 4.541483e+02 -5.993748e+02 
6.005543e+02 -1.554931e+02 -1.180677e+02 
6.575508e+01 7.477209e+02 -1.157834e+02 
2.287365e+02 5.076246e+02 1.988669e+02 
-2.470627e+02 -7.876036e+01 -5.071161e+00 
-9.987155e+02 -8.152808e+02 -2.423663e+02 
6.272227e+01 -2.802472e+02 -4.238341e+02 
5.146681e+02 -1.081343e+03 -7.183042e+02 
5.615283e+01 6.303044e+02 1.034288e+02 
2.887760e+02 5.999885e+02 1.673552e+02 
-1.145202e+03 -2.908776e+02 2.392142e+02 
-1.397530e+02 -2.837546e+02 1.327699e+02 
-4.574408e+02 -6.708452e+02 5.836199e+01 
-1.011671e+03 -3.405639e+02 4.125229e+00 
1.129958e+03 3.508450e+02 4.769901e+02 
4.654195e+01 5.915909e+02 5.877226e+02 
6.968687e+02 8.777238e+01 1.426541e+02 
2.367838e+02 -7.660483e+02 9.006619e+02 
-1.034579e+03 -5.537142e+02 -2.173903e+02 
-8.643026e+02 5.785764e+02 1.984689e+02 
-4.705085e+02 8.377565e+02 -2.648933e+01 
-5.040975e+02 -3.082237e+02 2.173345e+02 
2.751715e+02 -7.369631e+02 3.188055e+02 
-3.954365e+01 -3.047260e+02 4.055865e+02 
5.329560e+00 4.656045e+02 7.144211e+02 
-7.857163e+02 -2.958458e+02 -3.207550e+02 
-4.399361e+02 -6.774518e+00 5.288841e+02 
-1.271837e+03 1.555932e+02 1.151231e+03 
5.095922e+02 -3.443609e+02 5.776753e+02 
-6.434873e+01 2.588936e+02 -8.681580e+01 
5.043372e+02 -1.653595e+01 6.894474e+02 
-9.623817e+00 -7.309628e+02 2.711090e+02 
-1.903355e+02 9.818636e+02 2.736301e+02 
-3.592541e+02 -9.197871e+02 -6.103968e+02 
-3.734830e+02 -1.719323e+02 2.491370e+02 
-6.595142e+02 5.390619e+02 -3.500117e+02 
6.494125e+02 6.663265e+02 7.304654e+02 
-5.943739e+02 -1.308402e+02 -5.818170e+02 
1.782304e+02 -4.439424e+02 6.024014e+02 
-1.301863e+03 1.044851e+03 3.625478e+02 
-6.174059e+02 -2.070181e+02 2.431152e+02 
9.333272e+02 9.317908e+02 2.560680e+02 
-8.702491e+02 -4.100621e+02 4.144083e+02 
-4.568058e+02 3.410495e+02 9.217736e+01 
-3.399191e+02 -5.743785e+02 -5.819958e+02 
6.757590e+02 9.149211e+01 4.722742e+02 
2.397779e+02 7.468990e+01 -6.568534e+02 
-7.637219e+02 1.444293e+02 3.429010e+02 
-5.029229e+02 4.048215e+01 7.556917e+02 
5.300093e+02 -8.265000e+02 4.204316e+02 
-6.001819e+02 2.455351e+02 1.487793e+03 
-2.412954e+02 -1.584339e+02 5.298102e+02 
3.053982e+02 6.348870e+01 -4.763468e+02 
-4.074999e+02 4.250695e+02 -2.500658e+02 
-4.962937e+02 6.156602e+02 7.832523e+02 
-1.006467e+02 5.651557e+01 -3.955893e+02 
-1.663973e+02 7.802509e+01 9.466431e+02 
-4.287700e+02 2.985499e+01 -1.017796e+02 
-3.919053e+02 -9.958691e+02 3.557725e+02 
-1.906234e+02 1.180370e+02 7.703575e+02 
7.657057e+02 -8.734477e+01 -8.791975e+02 
8.691396e+02 1.808317e+02 1.852601e+02 
-6.298121e+02 3.645568e+02 9.582662e+01 
-2.767696e+01 -7.307462e+02 -9.234571e+01 
-2.378717e+02 -8.709369e+00 -8.873386e+02 
5.911177e+00 1.955329e+02 1.162798e+03 
-1.193231e+03 -7.706555e+00 -4.871628e+01 
3.488823e+02 2.707072e+02 -7.156055e+02 
-3.471528e+02 1.244308e+03 -1.458978e+03 
-3.218166e+02 5.663182e+02 -1.513618e+02 
-7.770270e+02 4.154331e+02 -4.901149e+02 
2.633988e+02 -6.935225e+02 6.647980e+02 
-7.814546e+01 -2.918218e+02 -8.399418e+02 
5.269439e+02 -5.260026e+02 -4.279732e+02 
-3.124074e+02 7.835765e+02 -5.000776e+02 
3.813449e+02 6.930880e+02 2.741899e+02 
3.835994e+02 2.740417e+02 -2.598911e+02 
1.937814e+02 4.059471e+01 2.182727e+01 
8.107060e+02 -4.274857e+02 -1.891144e+02 
4.705378e+02 4.861230e+02 -2.362430e+02 
5.027414e+01 -1.390101e+02 4.418218e+02 
2.795898e+02 -6.971291e+01 5.843229e+02 
-2.551207e+02 1.002574e+03 6.477787e+02 
7.471676e+02 1.293527e+03 9.338962e+02 
2.886490e+02 -2.738542e+02 -9.764058e+02 
6.101680e+02 7.309095e+02 1.150911e+03 
-4.481896e+01 -2.196622e+01 -1.040428e+02 
7.049997e+02 -2.300995e+02 2.765785e+02 
6.809304e+02 -3.625837e+01 1.027145e+03 
1.455462e+02 1.499678e+02 6.890498e+02 
1.836948e+02 7.463109e+02 2.662903e+02 
1.320766e+03 -4.930987e+02 2.848062e+02 
0.000000e+00 0.000000e+00 0.000000e+00 
0.000000e+00 0.000000e+00 0.000000e+00 
0.000000e+00 0.000000e+00 0.000000e+00 
0.000000e+00 0.000000e+00 0.000000e+00 
0.000000e+00 0.000000e+00 0.000000e+00 
0.000000e+00 0.000000e+00 0.000000e+00 
0.000000e+00 0.000000e+00 0.000000e+00 
0.000000e+00 0.000000e+00 0.000000e+00 
0.000000e+00 0.000000e+00 0.000000e+00 
0.000000e+00 0.000000e+00 0.000000e+00 
0.000000e+00 0.000000e+00 0.000000e+00 
0.000000e+00 0.000000e+00 0.000000e+00 
0.000000e+00 0.000000e+00 0.000000e+00 
0.000000e+00 0.000000e+00 0.000000e+00 
0.000000e+00 0.000000e+00 0.000000e+00 
0.000000e+00 0.000000e+00 0.000000e+00 
0.000000e+00 0.000000e+00 0.000000e+00 
0.000000e+00 0.000000e+00 0.000000e+00 
0.000000e+00 0.000000e+00 0.000000e+00 
0.000000e+00 0.000000e+00 0.000000e+00 
0.000000e+00 0.000000e+00 0.000000e+00 
0.000000e+00 0.000000e+00 0.000000e+00 
0.000000e+00 0.000000e+00 0.000000e+00 
0.000000e+00 0.000000e+00 0.000000e+00 
0.000000e+00 0.000000e+00 0.000000e+00 
0.000000e+00 0.000000e+00 0.000000e+00 
0.000000e+00 0.000000e+00 0.000000e+00 
0.000000e+00 0.000000e+00 0.000000e+00 
0.000000e+00 0.000000e+00 0.000000e+00 
0.000000e+00 0.000000e+00 0.000000e+00 
0.000000e+00 0.000000e+00 0.000000e+00 
0.000000e+00 0.000000e+00 0.000000e+00 
0.000000e+00 0.000000e+00 0.000000e+00 
0.000000e+00 0.000000e+00 0.000000e+00 
0.000000e+00 0.000000e+00 0.000000e+00 
0.000000e+00 0.000000e+00 0.000000e+00 
0.000000e+00 0.000000e+00 0.000000e+00 
0.000000e+00 0.000000e+00 0.000000e+00 
0.000000e+00 0.000000e+00 0.000000e+00 
0.000000e+00 0.000000e+00 0.000000e+00 
0.000000e+00 0.000000e+00 0.000000e+00 
0.000000e+00 0.000000e+00 0.000000e+00 
0.000000e+00 0.000000e+00 0.000000e+00 
0.000000e+00 0.000000e+00 0.000000e+00 
0.000000e+00 0.000000e+00 0.000000e+00 
0.000000e+00 0.000000e+00 0.000000e+00 
0.000000e+00 0.000000e+00 0.000000e+00 
0.000000e+00 0.000000e+00 0.000000e+00 
0.000000e+00 0.000000e+00 0.000000e+00 
0.000000e+00 0.000000e+00 0.000000e+00 
0.000000e+00 0.000000e+00 0.000000e+00 
0.000000e+00 0.000000e+00 0.000000e+00 
0.000000e+00 0.000000e+00 0.000000e+00 
0.000000e+00 0.000000e+00 0.000000e+00 
0.000000e+00 0.000000e+00 0.000000e+00 
0.000000e+00 0.000000e+00 0.000000e+00 
0.000000e+00 0.000000e+00 0.000000e+00 
0.000000e+00 0.000000e+00 0.000000e+00 
0.000000e+00 0.000000e+00 0.000000e+00 
0.000000e+00 0.000000e+00 0.000000e+00 
0.000000e+00 0.000000e+00 0.000000e+00 
0.000000e+00 0.000000e+00 0.000000e+00 
0.000000e+00 0.000000e+00 0.000000e+00 
0.000000e+00 0.000000e+00 0.000000e+00 
0.000000e+00 0.000000e+00 0.000000e+00 
0.000000e+00 0.000000e+00 0.000000e+00 
0.000000e+00 0.000000e+00 0.000000e+00 
0.000000e+00 0.000000e+00 0.000000e+00 
0.000000e+00 0.000000e+00 0.000000e+00 
0.000000e+00 0.000000e+00 0.000000e+00 
0.000000e+00 0.000000e+00 0.000000e+00 
0.000000e+00 0.000000e+00 0.000000e+00 
0.000000e+00 0.000000e+00 0.000000e+00 
0.000000e+00 0.000000e+00 0.000000e+00 
0.000000e+00 0.000000e+00 0.000000e+00 
0.000000e+00 0.000000e+00 0.000000e+00 
0.000000e+00 0.000000e+00 0.000000e+00 
0.000000e+00 0.000000e+00 0.000000e+00 
0.000000e+00 0.000000e+00 0.000000e+00 
0.000000e+00 0.000000e+00 0.000000e+00 
0.000000e+00 0.000000e+00 0.000000e+00 
0.000000e+00 0.000000e+00 0.000000e+00 
0.000000e+00 0.000000e+00 0.000000e+00 
0.000000e+00 0.000000e+00 0.000000e+00 
0.000000e+00 0.000000e+00 0.000000e+00 
0.000000e+00 0.000000e+00 0.000000e+00 
0.000000e+00 0.000000e+00 0.000000e+00 
0.000000e+00 0.000000e+00 0.000000e+00 
0.000000e+00 0.000000e+00 0.000000e+00 
0.000000e+00 0.000000e+00 0.000000e+00 
0.000000e+00 0.000000e+00 0.000000e+00 
0.000000e+00 0.000000e+00 0.000000e+00 
0.000000e+00 0.000000e+00 0.000000e+00 
0.000000e+00 0.000000e+00 0.000000e+00 
0.000000e+00 0.000000e+00 0.000000e+00 
0.000000e+00 0.000000e+00 0.000000e+00 
0.000000e+00 0.000000e+00 0.000000e+00 
0.000000e+00 0.000000e+00 0.000000e+00 
0.000000e+00 0.000000e+00 0.000000e+00 
0.000000e+00 0.000000e+00 0.000000e+00 
0.000000e+00 0.000000e+00 0.000000e+00 
0.000000e+00 0.000000e+00 0.000000e+00 
0.000000e+00 0.000000e+00 0.000000e+00 
0.000000e+00 0.000000e+00 0.000000e+00 
0.000000e+00 0.000000e+00 0.000000e+00 
0.000000e+00 0.000000e+00 0.000000e+00 
0.000000e+00 0.000000e+00 0.000000e+00 
0.000000e+00 0.000000e+00 0.000000e+00 
0.000000e+00 0.000000e+00 0.000000e+00 
0.000000e+00 0.000000e+00 0.000000e+00 
0.000000e+00 0.000000e+00 0.000000e+00 
0.000000e+00 0.000000e+00 0.000000e+00 
0.000000e+00 0.000000e+00 0.000000e+00 
0.000000e+00 0.000000e+00 0.000000e+00 
0.000000e+00 0.000000e+00 0.000000e+00 
0.000000e+00 0.000000e+00 0.000000e+00 
0.000000e+00 0.000000e+00 0.000000e+00 
0.000000e+00 0.000000e+00 0.000000e+00 
0.000000e+00 0.000000e+00 0.000000e+00 
0.000000e+00 0.000000e+00 0.000000e+00 
0.000000e+00 0.000000e+00 0.000000e+00 
0.000000e+00 0.000000e+00 0.000000e+00 
0.000000e+00 0.000000e+00 0.000000e+00 
0.000000e+00 0.000000e+00 0.000000e+00 
0.000000e+00 0.000000e+00 0.000000e+00 
0.000000e+00 0.000000e+00 0.000000e+00 
0.000000e+00 0.000000e+00 0.000000e+00 
0.000000e+00 0.000000e+00 0.000000e+00 
0.000000e+00 0.000000e+00 0.000000e+00 
0.000000e+00 0.000000e+00 0.000000e+00 
0.000000e+00 0.000000e+00 0.000000e+00 
0.000000e+00 0.000000e+00 0.000000e+00 
0.000000e+00 0.000000e+00 0.000000e+00 
0.000000e+00 0.000000e+00 0.000000e+00 
0.000000e+00 0.000000e+00 0.000000e+00 
0.000000e+00 0.000000e+00 0.000000e+00 
0.000000e+00 0.000000e+00 0.000000e+00 
0.000000e+00 0.000000e+00 0.000000e+00 
0.000000e+00 0.000000e+00 0.000000e+00 
0.000000e+00 0.000000e+00 0.000000e+00 
0.000000e+00 0.000000e+00 0.000000e+00 
0.000000e+00 0.000000e+00 0.000000e+00 
0.000000e+00 0.000000e+00 0.000000e+00 
0.000000e+00 0.000000e+00 0.000000e+00 
0.000000e+00 0.000000e+00 0.000000e+00 
0.000000e+00 0.000000e+00 0.000000e+00 
0.000000e+00 0.000000e+00 0.000000e+00 
0.000000e+00 0.000000e+00 0.000000e+00 
0.000000e+00 0.000000e+00 0.000000e+00 
0.000000e+00 0.000000e+00 0.000000e+00 
0.000000e+00 0.000000e+00 0.000000e+00 
0.000000e+00 0.000000e+00 0.000000e+00 
0.000000e+00 0.000000e+00 0.000000e+00 
0.000000e+00 0.000000e+00 0.000000e+00 
0.000000e+00 0.000000e+00 0.000000e+00 
0.000000e+00 0.000000e+00 0.000000e+00 
0.000000e+00 0.000000e+00 0.000000e+00 
0.000000e+00 0.000000e+00 0.000000e+00 
0.000000e+00 0.000000e+00 0.000000e+00 
0.000000e+00 0.000000e+00 0.000000e+00 
0.000000e+00 0.000000e+00 0.000000e+00 
0.000000e+00 0.000000e+00 0.000000e+00 
0.000000e+00 0.000000e+00 0.000000e+00 
0.000000e+00 0.000000e+00 0.000000e+00 
0.000000e+00 0.000000e+00 0.000000e+00 
0.000000e+00 0.000000e+00 0.000000e+00 
0.000000e+00 0.000000e+00 0.000000e+00 
0.000000e+00 0.000000e+00 0.000000e+00 
0.000000e+00 0.000000e+00 0.000000e+00 
0.000000e+00 0.000000e+00 0.000000e+00 
0.000000e+00 0.000000e+00 0.000000e+00 
0.000000e+00 0.000000e+00 0.000000e+00 
0.000000e+00 0.000000e+00 0.000000e+00 
0.000000e+00 0.000000e+00 0.000000e+00 
0.000000e+00 0.000000e+00 0.000000e+00 
0.000000e+00 0.000000e+00 0.000000e+00 
0.000000e+00 0.000000e+00 0.000000e+00 
0.000000e+00 0.000000e+00 0.000000e+00 
0.000000e+00 0.000000e+00 0.000000e+00 
0.000000e+00 0.000000e+00 0.000000e+00 
0.000000e+00 0.000000e+00 0.000000e+00 
0.000000e+00 0.000000e+00 0.000000e+00 
0.000000e+00 0.000000e+00 0.000000e+00 
0.000000e+00 0.000000e+00 0.000000e+00 
0.000000e+00 0.000000e+00 0.000000e+00 
0.000000e+00 0.000000e+00 0.000000e+00 
0.000000e+00 0.000000e+00 0.000000e+00 
0.000000e+00 0.000000e+00 0.000000e+00 
0.000000e+00 0.000000e+00 0.000000e+00 
0.000000e+00 0.000000e+00 0.000000e+00 
0.000000e+00 0.000000e+00 0.000000e+00 
0.000000e+00 0.000000e+00 0.000000e+00 
0.000000e+00 0.000000e+00 0.000000e+00 
0.000000e+00 0.000000e+00 0.000000e+00 
0.000000e+00 0.000000e+00 0.000000e+00 
0.000000e+00 0.000000e+00 0.000000e+00 
0.000000e+00 0.000000e+00 0.000000e+00 
0.000000e+00 0.000000e+00 0.000000e+00 
0.000000e+00 0.000000e+00 0.000000e+00 
0.000000e+00 0.000000e+00 0.000000e+00 
0.000000e+00 0.000000e+00 0.000000e+00 
0.000000e+00 0.000000e+00 0.000000e+00 
0.000000e+00 0.000000e+00 0.000000e+00 
0.000000e+00 0.000000e+00 0.000000e+00 
0.000000e+00 0.000000e+00 0.000000e+00 
0.000000e+00 0.000000e+00 0.000000e+00 
0.000000e+00 0.000000e+00 0.000000e+00 
0.000000e+00 0.000000e+00 0.000000e+00 
0.000000e+00 0.000000e+00 0.000000e+00 
0.000000e+00 0.000000e+00 0.000000e+00 
0.000000e+00 0.000000e+00 0.000000e+00 
0.000000e+00 0.000000e+00 0.000000e+00 
0.000000e+00 0.000000e+00 0.000000e+00 
0.000000e+00 0.000000e+00 0.000000e+00 
0.000000e+00 0.000000e+00 0.000000e+00 
0.000000e+00 0.000000e+00 0.000000e+00 
0.000000e+00 0.000000e+00 0.000000e+00 
0.000000e+00 0.000000e+00 0.000000e+00 
0.000000e+00 0.000000e+00 0.000000e+00 
0.000000e+00 0.000000e+00 0.000000e+00 
0.000000e+00 0.000000e+00 0.000000e+00 
0.000000e+00 0.000000e+00 0.000000e+00 
0.000000e+00 0.000000e+00 0.000000e+00 
0.000000e+00 0.000000e+00 0.000000e+00 
0.000000e+00 0.000000e+00 0.000000e+00 
0.000000e+00 0.000000e+00 0.000000e+00 
0.000000e+00 0.000000e+00 0.000000e+00 
0.000000e+00 0.000000e+00 0.000000e+00 
0.000000e+00 0.000000e+00 0.000000e+00 
0.000000e+00 0.000000e+00 0.000000e+00 
0.000000e+00 0.000000e+00 0.000000e+00 
0.000000e+00 0.000000e+00 0.000000e+00 
0.000000e+00 0.000000e+00 0.000000e+00 
0.000000e+00 0.000000e+00 0.000000e+00 
0.000000e+00 0.000000e+00 0.000000e+00 
0.000000e+00 0.000000e+00 0.000000e+00 
0.000000e+00 0.000000e+00 0.000000e+00 
0.000000e+00 0.000000e+00 0.000000e+00 
0.000000e+00 0.000000e+00 0.000000e+00 
0.000000e+00 0.000000e+00 0.000000e+00 
0.000000e+00 0.000000e+00 0.000000e+00 
0.000000e+00 0.000000e+00 0.000000e+00 
0.000000e+00 0.000000e+00 0.000000e+00 
0.000000e+00 0.000000e+00 0.000000e+00 
0.000000e+00 0.000000e+00 0.000000e+00 
0.000000e+00 0.000000e+00 0.000000e+00 
0.000000e+00 0.000000e+00 0.000000e+00 
0.000000e+00 0.000000e+00 0.000000e+00 
0.000000e+00 0.000000e+00 0.000000e+00 
0.000000e+00 0.000000e+00 0.000000e+00 
0.000000e+00 0.000000e+00 0.000000e+00 
0.000000e+00 0.000000e+00 0.000000e+00 
0.000000e+00 0.000000e+00 0.000000e+00 
0.000000e+00 0.000000e+00 0.000000e+00 
0.000000e+00 0.000000e+00 0.000000e+00 
0.000000e+00 0.000000e+00 0.000000e+00 
0.000000e+00 0.000000e+00 0.000000e+00 
0.000000e+00 0.000000e+00 0.000000e+00 
0.000000e+00 0.000000e+00 0.000000e+00 
0.000000e+00 0.000000e+00 0.000000e+00 
0.000000e+00 0.000000e+00 0.000000e+00 
0.000000e+00 0.000000e+00 0.000000e+00 
0.000000e+00 0.000000e+00 0.000000e+00 
0.000000e+00 0.000000e+00 0.000000e+00 
0.000000e+00 0.000000e+00 0.000000e+00 
0.000000e+00 0.000000e+00 0.000000e+00 
0.000000e+00 0.000000e+00 0.000000e+00 
0.000000e+00 0.000000e+00 0.000000e+00 
0.000000e+00 0.000000e+00 0.000000e+00 
0.000000e+00 0.000000e+00 0.000000e+00 
0.000000e+00 0.000000e+00 0.000000e+00 
0.000000e+00 0.000000e+00 0.000000e+00 
0.000000e+00 0.000000e+00 0.000000e+00 
0.000000e+00 0.000000e+00 0.000000e+00 
0.000000e+00 0.000000e+00 0.000000e+00 
0.000000e+00 0.000000e+00 0.000000e+00 
0.000000e+00 0.000000e+00 0.000000e+00 